ITEM: TIMESTEP
0
ITEM: NUMBER OF ATOMS
15360
ITEM: BOX BOUNDS xy xz yz pp pp pp
-6.0270000000000001e+00 6.1740800000000000e+01 4.6600000000000003e-02
-9.6870000000000001e-01 3.5244799999999998e+01 -6.0270000000000001e+00
-1.0000000000000000e+01 6.7514799999999994e+01 -9.6870000000000001e-01
ITEM: ATOMS id type x y z
3797 3 2.74052 5.36629 2.39
7681 1 1.25825 0.167055 1.64206
7691 2 3.66749 1.01342 1.77459
7692 1 3.12988 2.44779 1.86803
7693 3 1.02662 1.08769 1.09488
7695 3 0.799738 0.236189 2.63571
7708 3 2.97722 2.87984 0.871259
7709 3 2.18088 2.5028 2.4122
7710 3 3.80686 3.10483 2.42526
4434 3 -0.12094 4.41601 2.46137
7682 2 2.77006 -0.0816668 1.74279
4418 1 -0.630186 3.6193 1.90803
4432 3 -0.162565 3.53878 0.918936
4433 3 -0.405094 2.70478 2.4679
3799 3 4.55633 5.10799 1.03068
3801 3 5.33313 5.27939 2.61503
7689 2 5.06451 0.785069 1.74914
7690 1 6.03296 1.97076 1.6386
7705 3 6.95365 1.70618 1.10726
7706 3 5.60733 2.7976 1.0595
7707 3 6.30832 2.35505 2.62694
151 1 8.97585 4.57266 1.64206
163 3 8.74422 5.4933 1.09488
164 3 8.46024 3.78324 1.0836
165 3 8.51733 4.6418 2.63571
168 3 9.10855 2.06355 2.41306
7704 3 7.58501 0.0104017 2.46137
152 2 10.4877 4.32394 1.74279
153 2 10.9878 2.99959 1.76903
154 1 10.0165 1.81361 1.85371
155 2 12.3857 2.77101 1.74635
156 1 12.9234 1.3381 1.62992
157 2 13.2827 3.86638 1.7889
159 2 12.7821 5.19067 1.74914
161 2 11.3851 5.41902 1.77459
166 3 9.71883 1.47302 0.854327
167 3 10.4465 0.960693 2.39
169 3 12.2623 0.702398 1.03068
170 3 13.8899 1.29327 1.11676
171 3 13.0391 0.873797 2.61504
3782 2 2.78171 8.72953 1.74279
3783 2 3.28183 7.40519 1.76903
3784 1 2.31053 6.2192 1.85371
3794 3 0.75429 8.18884 1.0836
3796 3 2.01288 5.87862 0.854325
3798 3 1.4026 6.46915 2.41306
3781 1 1.2699 8.97826 1.64206
3791 2 3.67914 9.82462 1.77459
3792 1 3.14153 11.259 1.86803
3793 3 1.03827 9.89889 1.09488
3795 3 0.811388 9.04739 2.63571
3809 3 2.19253 11.314 2.4122
3804 3 7.59666 8.8216 2.46137
3785 2 4.67971 7.17661 1.74635
3786 1 5.21746 5.7437 1.62992
3787 2 5.57672 8.27198 1.7889
3788 1 7.08742 8.02489 1.90802
3800 3 6.184 5.69887 1.11676
3802 3 7.55504 7.94438 0.918934
3803 3 7.31251 7.11038 2.4679
108 3 9.12021 10.8747 2.41306
3789 2 5.07616 9.59627 1.74914
3790 1 6.04461 10.782 1.63859
3805 3 6.9653 10.5174 1.10726
3806 3 5.61898 11.6088 1.0595
3807 3 6.31997 11.1663 2.62694
111 3 13.0507 9.685 2.61504
110 3 13.9016 10.1045 1.11676
109 3 12.2739 9.5136 1.03068
107 3 10.4581 9.77189 2.39
106 3 9.73049 10.2842 0.854325
96 1 12.9351 10.1493 1.62992
95 2 12.3973 11.5822 1.74635
94 1 10.0281 10.6248 1.85371
160 1 13.7506 6.37636 1.63859
162 1 10.8475 6.8534 1.86802
175 3 14.6712 6.11179 1.10726
176 3 13.3249 7.2032 1.0595
177 3 14.0259 6.76066 2.62694
178 3 10.6948 7.28545 0.871256
179 3 9.89847 6.90841 2.4122
180 3 11.5245 7.51043 2.42526
3 2 3.29348 16.2164 1.76903
4 1 2.32218 15.0304 1.85371
14 3 0.765943 17 1.0836
16 3 2.02454 14.6898 0.854326
17 3 2.75217 14.1775 2.39
18 3 1.41426 15.2803 2.41306
3808 3 2.98887 11.691 0.871257
3810 3 3.81851 11.916 2.42526
4494 3 -0.10929 13.2272 2.46137
4493 3 -0.393444 11.516 2.4679
4492 3 -0.150915 12.35 0.918934
4478 1 -0.618536 12.4305 1.90802
5 2 4.69136 15.9878 1.74635
6 1 5.22911 14.5549 1.62992
7 2 5.58837 17.0832 1.7889
8 1 7.09907 16.8361 1.90803
19 3 4.56798 13.9192 1.03068
20 3 6.19565 14.5101 1.11676
21 3 5.34479 14.0906 2.61504
22 3 7.56669 16.7556 0.918936
23 3 7.32416 15.9216 2.4679
105 3 8.52899 13.453 2.63571
104 3 8.47189 12.5944 1.0836
103 3 8.75587 14.3045 1.09488
91 1 8.9875 13.3839 1.64206
120 3 11.5361 16.3216 2.42526
119 3 9.91013 15.7196 2.4122
118 3 10.7065 16.0966 0.871258
117 3 14.0376 15.5719 2.62694
116 3 13.3366 16.0144 1.0595
115 3 14.6829 14.923 1.10725
102 1 10.8591 15.6646 1.86803
101 2 11.3967 14.2302 1.77459
100 1 13.7622 15.1876 1.63859
99 2 12.7938 14.0019 1.74914
97 2 13.2943 12.6776 1.7889
93 2 10.9994 11.8108 1.76903
92 2 10.4993 13.1351 1.74279
121 1 1.83397 3.97074 5.24903
122 2 3.34495 3.72035 5.35506
123 2 3.84277 2.39515 5.38603
124 1 2.8709 1.21054 5.48502
133 3 1.60616 4.88781 4.69472
134 3 1.31778 3.17729 4.69751
135 3 1.37396 4.04863 6.24104
136 3 2.57214 0.855467 4.49285
137 3 3.30157 0.364123 6.03071
138 3 1.96278 1.46665 6.04072
244 1 3.46281 5.0046 9.0945
256 3 3.16249 4.64828 8.10331
4958 1 0.524613 2.3953 9.10682
4960 1 -0.51175 5.1554 8.86884
4970 3 -0.39315 0.0658565 8.33133
4972 3 0.984058 2.31607 8.1147
4975 3 0.395243 4.8986 8.31167
12535 3 -0.19691 1.10564 4.70963
12537 3 -0.805291 1.71873 6.2571
12520 1 -1.1047 1.36222 5.26568
4550 3 -0.971683 5.08383 4.72914
4957 2 -0.986409 2.64585 9.00126
4956 1 -1.35364 0.117341 8.85439
125 2 5.23966 2.16437 5.3601
126 1 5.77254 0.729398 5.24983
127 2 6.13916 3.25794 5.39708
129 2 5.64124 4.58323 5.36594
131 2 4.2443 4.81398 5.39246
139 3 5.10388 0.0899169 4.66337
140 3 6.73427 0.678229 4.72914
141 3 5.8961 0.271926 6.23688
246 1 6.36396 4.52294 8.85438
259 3 5.6938 3.88313 8.27004
7872 1 4.29245 1.23185 9.10812
7886 3 6.76287 1.59626 8.3238
7888 3 4.16419 1.68764 8.12091
7903 3 9.31211 0.482209 4.69472
128 1 7.65021 3.00717 5.50269
142 3 8.10894 2.92444 4.51039
143 3 7.87789 2.0922 6.0605
144 3 8.16787 3.80224 6.05047
145 3 7.52069 5.51125 4.70963
7885 3 8.1012 0.492998 8.31167
7870 1 7.1942 0.749802 8.86884
260 3 7.32445 4.47145 8.33133
344 3 9.6143 2.56554 8.30932
7871 2 4.82518 -0.203249 8.99767
7920 3 12.0875 2.48543 6.08325
7919 3 10.4581 1.89359 6.03033
7918 3 11.2848 2.29741 4.51537
7916 3 13.8875 2.20784 4.71931
7902 1 11.4163 1.84305 5.50294
7901 2 11.9503 0.40838 5.39246
7899 2 13.3472 0.177632 5.36594
274 1 10.5885 5.61614 5.48502
276 1 13.4901 5.135 5.24983
286 3 10.2897 5.26107 4.49285
287 3 11.0192 4.76972 6.03071
289 3 12.8215 4.49551 4.66337
346 3 10.8684 0.24268 8.10331
291 3 13.6137 4.67752 6.23688
343 3 9.90308 4.27592 8.30405
342 1 12.01 5.63745 9.10812
341 2 12.5428 4.20235 8.99767
339 2 13.9396 3.97121 8.96982
335 2 13.5374 1.55244 8.96539
334 1 11.1688 0.598999 9.0945
333 2 12.1406 1.78352 8.99332
332 2 11.643 3.10888 8.96241
331 1 10.1319 3.35944 8.85881
132 1 3.71037 6.24865 5.50294
148 3 3.57881 6.70301 4.51537
149 3 2.75212 6.29919 6.03033
241 1 2.42595 7.76504 8.85881
242 2 3.93709 7.51448 8.96241
253 3 2.19714 8.68152 8.30405
254 3 1.90835 6.97114 8.30932
4538 1 -0.0557454 7.41276 5.50269
4552 3 0.402986 7.33004 4.51039
4553 3 0.171941 6.4978 6.0605
4554 3 0.461924 8.20783 6.05047
63 2 3.85442 11.2063 5.38603
64 1 2.88255 10.0217 5.48502
76 3 2.5838 9.66667 4.49285
77 3 3.31322 9.17532 6.03071
78 3 1.97443 10.2778 6.04072
4555 3 -0.185261 9.91684 4.70963
4898 1 0.536265 11.2065 9.10682
4910 3 -0.3815 8.87706 8.33133
4912 3 0.995709 11.1273 8.1147
4897 2 -0.974757 11.4571 9.00126
4896 1 -1.34199 8.92854 8.85438
4557 3 -0.793644 10.5299 6.25709
4540 1 -1.09305 10.1734 5.26568
4976 3 -0.943084 6.00186 8.32379
130 1 6.6129 5.76783 5.26568
146 3 6.18158 6.61344 4.71931
147 3 6.91231 6.12434 6.25709
150 3 4.38159 6.89103 6.08325
243 2 4.43464 6.18912 8.99332
245 2 5.83145 5.95804 8.96538
247 2 6.73119 7.05145 9.00126
249 2 6.23366 8.37681 8.96982
251 2 4.83683 8.60795 8.99767
404 3 9.62595 11.3767 8.30932
283 3 9.32376 9.29341 4.69472
265 3 8.11285 9.3042 8.31167
250 1 7.20585 9.561 8.86884
65 2 5.25131 10.9756 5.3601
66 1 5.78419 9.5406 5.24983
79 3 5.11553 8.90112 4.66337
80 3 6.74592 9.48943 4.72914
81 3 5.90775 9.08313 6.23688
252 1 4.3041 10.0431 9.10812
266 3 6.77452 10.4075 8.3238
268 3 4.17584 10.4988 8.12091
83 3 7.88954 10.9034 6.0605
248 1 8.24222 6.8009 9.10682
262 3 8.70166 6.72167 8.1147
271 1 9.55157 8.37634 5.24903
284 3 9.03538 7.58289 4.69751
285 3 9.09157 8.45423 6.24104
406 3 10.8801 9.05388 8.10331
395 2 13.5491 10.3636 8.96539
394 1 11.1804 9.4102 9.0945
393 2 12.1522 10.5947 8.99332
300 3 12.0992 11.2966 6.08325
299 3 10.4697 10.7048 6.03034
298 3 11.2964 11.1086 4.51537
296 3 13.8992 11.019 4.71931
282 1 11.428 10.6542 5.50294
281 2 11.9619 9.21958 5.39246
279 2 13.3588 8.98883 5.36593
409 3 13.4114 8.28873 8.27005
358 3 11.8818 6.09324 8.12091
272 2 11.0626 8.12595 5.35506
273 2 11.5604 6.80075 5.38603
275 2 12.9573 6.56997 5.3601
277 2 13.8568 7.66354 5.39708
288 3 9.68038 5.87225 6.04072
61 1 1.84562 12.7819 5.24903
62 2 3.35661 12.5315 5.35506
72 1 3.72202 15.0598 5.50294
73 3 1.61781 13.699 4.69472
74 3 1.32943 11.9885 4.69751
75 3 1.38562 12.8598 6.24104
88 3 3.59047 15.5142 4.51537
89 3 2.76377 15.1104 6.03034
181 1 2.4376 16.5762 8.85881
182 2 3.94874 16.3257 8.96241
184 1 3.47446 13.8158 9.0945
193 3 2.20879 17.4927 8.30405
194 3 1.92 15.7823 8.30932
196 3 3.17414 13.4595 8.10331
4838 1 -0.0440935 16.224 5.5027
4852 3 0.414638 16.1412 4.51039
4853 3 0.183592 15.309 6.0605
4854 3 0.473576 17.019 6.05047
4900 1 -0.500097 13.9666 8.86884
4915 3 0.406895 13.7098 8.31167
4916 3 -0.931431 14.8131 8.3238
4850 3 -0.96003 13.895 4.72914
225 3 9.10322 17.2654 6.24104
224 3 9.04704 16.3941 4.69751
211 1 9.56322 17.1875 5.24903
202 3 8.71331 15.5329 8.11471
200 3 7.3361 13.2827 8.33133
67 2 6.15081 12.0691 5.39708
69 2 5.65289 13.3944 5.36594
70 1 6.62455 14.579 5.26568
71 2 4.25596 13.6252 5.39246
86 3 6.19323 15.4246 4.71931
87 3 6.92396 14.9355 6.2571
90 3 4.39324 15.7022 6.08325
183 2 4.4463 15.0003 8.99332
185 2 5.8431 14.7692 8.96539
186 1 6.37562 13.3341 8.85439
187 2 6.74284 15.8627 9.00126
189 2 6.24531 17.188 8.96982
188 1 8.25387 15.6121 9.10682
199 3 5.70545 12.6943 8.27005
85 3 7.53234 14.3224 4.70963
84 3 8.17953 12.6134 6.05047
82 3 8.12059 11.7356 4.51039
68 1 7.66186 11.8184 5.50269
8029 3 13.423 17.0999 8.27005
418 3 11.8934 14.9044 8.12091
403 3 9.91474 13.0871 8.30405
402 1 12.0217 14.4487 9.10812
401 2 12.5544 13.0136 8.99768
399 2 13.9513 12.7824 8.96982
392 2 11.6547 11.9201 8.96241
391 1 10.1435 12.1706 8.85881
231 3 13.6253 13.4887 6.23688
229 3 12.8331 13.3067 4.66337
228 3 9.69203 14.6834 6.04072
227 3 11.0308 13.5809 6.03071
226 3 10.3014 14.0723 4.49285
217 2 13.8684 16.4747 5.39708
216 1 13.5018 13.9462 5.24983
215 2 12.9689 15.3812 5.3601
214 1 10.6002 14.4273 5.48502
213 2 11.572 15.6119 5.38603
212 2 11.0742 16.9371 5.35506
5392 3 2.15612 1.09433 15.307
5395 3 1.56793 3.6764 15.5052
5396 3 0.229362 4.77932 15.5171
314 3 2.48934 1.95444 11.9075
315 3 2.5481 2.82683 13.4501
4973 3 0.752609 1.47891 9.66205
4974 3 1.04139 3.18922 9.6571
4977 3 -0.210699 5.51088 9.86008
5315 2 -1.29398 5.34687 12.5648
5316 1 -0.761516 3.91174 12.4539
5329 3 -1.43216 3.27154 11.8706
5330 3 0.198485 3.86012 11.93
5331 3 -0.634538 3.45513 13.4408
12700 1 0.0686518 0.13876 12.4673
12715 3 0.975636 -0.117976 11.9102
12716 3 -0.362935 0.984969 11.922
12717 3 0.369805 0.494686 13.4583
436 3 4.33427 3.42643 15.2989
8428 3 5.33844 0.466054 15.3164
439 3 6.86605 2.66028 15.4659
8426 3 7.93532 0.373716 15.5172
257 3 3.89433 4.15875 9.64039
258 3 2.55545 5.26115 9.65115
261 3 6.48991 4.06591 9.84124
301 1 3.00654 2.74821 12.4576
302 2 4.51765 2.49775 12.5618
303 2 5.01517 1.1724 12.5929
304 1 4.04316 -0.0119428 12.6945
311 2 5.41742 3.59119 12.597
312 1 4.8849 5.02631 12.7079
313 3 2.77784 3.66488 11.9031
318 3 3.1362 0.244789 13.2517
328 3 4.75753 5.48282 11.721
329 3 3.92508 5.07787 13.2321
7889 3 3.33301 1.28345 9.6331
7890 3 4.96333 1.87266 9.69051
7887 3 7.49526 1.10528 9.86008
305 2 6.41197 0.941267 12.5648
307 2 7.31175 2.03469 12.6
309 2 6.81422 3.36005 12.5687
310 1 7.78625 4.54436 12.4673
326 3 7.35466 5.39057 11.922
327 3 8.0874 4.90029 13.4583
440 3 8.49669 3.24893 15.525
883 3 11.0762 3.05359 15.4982
884 3 10.7877 1.34316 15.5027
898 3 13.056 4.87166 15.3164
8460 3 13.2616 1.26099 13.291
8459 3 11.631 0.672265 13.2321
8458 3 12.4635 1.07722 11.721
8442 1 12.5908 0.620705 12.7079
468 3 10.8538 4.65039 13.2517
467 3 12.1924 3.54753 13.2399
466 3 11.4596 4.03764 11.7035
454 1 11.7608 4.39366 12.6945
348 3 10.2614 0.855549 9.65115
345 3 9.67398 3.43854 9.85159
308 1 8.82284 1.78423 12.7046
322 3 9.28155 1.70544 11.7122
323 3 9.0514 0.867637 13.2592
324 3 9.33994 2.57804 13.2547
325 3 8.69324 4.28763 11.9102
347 3 11.6003 -0.246843 9.6404
5449 3 -0.839905 7.06589 15.4659
5450 3 0.790738 7.65453 15.525
5452 3 2.16777 9.90552 15.307
255 3 1.96803 7.84414 9.85159
5317 2 -0.394204 6.44029 12.6
5318 1 1.11688 6.18982 12.7046
5319 2 -0.891727 7.76565 12.5687
5332 3 1.57559 6.11104 11.7122
5333 3 1.34544 5.27323 13.2592
5334 3 1.63399 6.98364 13.2547
374 3 2.50099 10.7656 11.9075
4913 3 0.76426 10.2901 9.66205
5320 1 0.0803004 8.94996 12.4673
5335 3 0.987285 8.69322 11.9102
5336 3 -0.351286 9.79617 11.922
5337 3 0.381452 9.30589 13.4583
4911 3 -1.21604 8.47151 9.84124
433 3 3.37026 7.45919 15.4982
434 3 3.08174 5.74876 15.5027
448 3 5.35009 9.27725 15.3164
446 3 7.94697 9.18492 15.5171
367 2 7.3234 10.8459 12.6
365 2 6.42362 9.75247 12.5648
330 3 5.55565 5.66659 13.291
376 3 3.75369 8.44324 11.7035
377 3 4.48641 7.95314 13.2399
267 3 7.5069 9.91648 9.86008
269 3 3.34466 10.0946 9.63311
270 3 4.97498 10.6839 9.69051
362 2 4.5293 11.309 12.5618
363 2 5.02682 9.9836 12.5929
364 1 4.05481 8.79926 12.6945
378 3 3.14785 9.05599 13.2517
381 3 7.08307 7.86073 13.4408
380 3 7.91609 8.26572 11.93
379 3 6.28544 7.67714 11.8706
366 1 6.95609 8.31734 12.4539
442 3 9.87372 5.49992 15.307
445 3 9.28553 8.082 15.5052
826 3 12.0519 7.83204 15.2989
824 3 10.7993 10.1544 15.5027
480 3 13.2733 10.0722 13.291
479 3 11.6427 9.48347 13.2321
478 3 12.4751 9.88842 11.721
462 1 12.6025 9.43191 12.7079
408 3 10.2731 9.66675 9.65115
384 3 9.35159 11.3892 13.2547
383 3 9.06305 9.67884 13.2592
382 3 9.2932 10.5166 11.7122
368 1 8.83449 10.5954 12.7046
263 3 8.47021 5.8845 9.66205
465 3 10.2657 7.23243 13.4501
464 3 10.2069 6.36004 11.9075
463 3 10.4954 8.07048 11.9031
461 2 13.135 7.99679 12.597
453 2 12.7328 5.578 12.5929
452 2 12.2353 6.90335 12.5618
451 1 10.7241 7.15381 12.4576
264 3 8.759 7.59482 9.6571
407 3 11.6119 8.56436 9.6404
360 3 12.6809 6.27827 9.69051
359 3 11.0506 5.68905 9.6331
5455 3 1.57958 12.4876 15.5052
5456 3 0.241015 13.5905 15.5172
13069 3 -0.828255 15.8771 15.4659
13070 3 0.802387 16.4657 15.525
195 3 1.97968 16.6553 9.85159
375 3 2.55975 11.638 13.4501
4914 3 1.05305 12.0004 9.6571
4917 3 -0.199044 14.3221 9.86008
5015 2 -1.28233 14.1581 12.5648
5016 1 -0.749863 12.7229 12.4539
5017 2 -0.382552 15.2515 12.6
5018 1 1.12854 15.001 12.7046
5019 2 -0.880076 16.5768 12.5687
5029 3 -1.42051 12.0827 11.8706
5030 3 0.210138 12.6713 11.93
5031 3 -0.622885 12.2663 13.4408
5032 3 1.58725 14.9222 11.7122
5033 3 1.3571 14.0844 13.2592
5034 3 1.64564 15.7948 13.2547
12651 3 -1.20439 17.2827 9.84124
733 3 3.38191 16.2704 15.4982
734 3 3.09339 14.56 15.5027
736 3 4.34592 12.2376 15.2989
739 3 6.8777 11.4715 15.4659
8001 3 7.09471 16.6719 13.4408
8000 3 7.92774 17.0769 11.93
7999 3 6.29709 16.4883 11.8706
7986 1 6.96774 17.1285 12.4539
387 3 8.09906 13.7115 13.4583
386 3 7.36632 14.2018 11.922
370 1 7.7979 13.3556 12.4673
369 2 6.82588 12.1713 12.5687
197 3 3.90598 12.97 9.6404
198 3 2.56711 14.0723 9.65115
201 3 6.50157 12.8771 9.84124
361 1 3.01819 11.5594 12.4576
371 2 5.42908 12.4024 12.597
372 1 4.89655 13.8375 12.7079
373 3 2.78949 12.4761 11.9032
388 3 4.76918 14.294 11.721
389 3 3.93674 13.8891 13.2321
390 3 5.5673 14.4778 13.291
7996 3 3.76533 17.2544 11.7035
7997 3 4.49806 16.7643 13.2399
740 3 8.50834 12.0601 15.525
742 3 9.88538 14.3111 15.307
745 3 9.29718 16.8932 15.5052
823 3 11.0879 11.8648 15.4982
838 3 13.0677 13.6829 15.3164
8566 3 12.0635 16.6432 15.2989
768 3 10.8654 13.4616 13.2517
767 3 12.204 12.3587 13.2399
766 3 11.4713 12.8488 11.7035
765 3 10.2773 16.0436 13.4501
764 3 10.2186 15.1712 11.9075
763 3 10.5071 16.8817 11.9031
761 2 13.1467 16.808 12.597
754 1 11.7724 13.2049 12.6945
753 2 12.7444 14.3892 12.5929
752 2 12.2469 15.7145 12.5618
751 1 10.7358 15.965 12.4576
420 3 12.6926 15.0895 9.69051
419 3 11.0623 14.5003 9.63311
405 3 9.68563 12.2497 9.85159
385 3 8.70489 13.0988 11.9102
204 3 8.77065 16.406 9.6571
203 3 8.48186 14.6957 9.66205
5375 2 -0.713282 0.330025 16.1601
5377 2 0.186501 1.42345 16.1952
5378 1 1.6976 1.173 16.2995
5379 2 -0.311013 2.74881 16.164
5380 1 0.661003 3.93314 16.0624
5393 3 1.92628 0.25636 16.854
5394 3 2.2148 1.9668 16.8496
5397 3 0.962277 4.28914 17.0533
5493 2 -1.5177 4.35551 19.7829
5495 2 -0.120906 4.12438 19.7547
5496 1 0.411569 2.68926 19.6437
5497 2 0.778879 5.21781 19.7899
5498 1 2.28998 4.96735 19.8942
5507 3 -2.0581 2.32499 20.4297
5509 3 -0.259184 2.04904 19.0605
5510 3 1.37146 2.63768 19.1196
5511 3 0.538769 2.2326 20.6305
5513 3 2.51866 4.05071 20.4486
13496 3 0.810103 -0.237533 19.1118
13498 3 -1.78677 -0.145179 18.911
13500 3 -0.988822 0.0384579 20.4809
5381 2 -1.70781 2.97994 16.1923
5400 3 -1.56956 5.05531 16.8863
423 2 5.60752 4.96675 16.1883
424 1 4.6355 3.78242 16.2899
437 3 5.06712 2.93624 16.8351
438 3 3.72856 4.03915 16.8471
841 1 4.17963 1.52572 19.6473
853 3 3.95098 2.44236 19.0928
854 3 3.66246 0.731923 19.0973
855 3 3.72107 1.6044 20.6398
869 3 5.09814 3.8554 20.4219
8412 1 5.46565 0.00945733 16.3032
8429 3 4.50575 0.0610436 16.8273
8430 3 6.13639 0.649705 16.8863
5512 3 2.74851 4.88868 18.9017
425 2 7.00432 4.73562 16.1601
426 1 7.5368 3.30051 16.0491
441 3 7.66399 2.84385 17.0359
842 2 5.69074 1.27527 19.7517
843 2 6.18825 -0.0500912 19.7829
845 2 7.58505 -0.281219 19.7547
849 2 7.98732 2.13757 19.7586
851 2 6.59052 2.36869 19.7869
852 1 6.05803 3.80381 19.8978
868 3 5.93083 4.26042 18.911
870 3 6.72878 4.44406 20.4809
443 3 9.64388 4.66196 16.854
847 2 8.48483 0.812208 19.7899
848 1 9.99593 0.561757 19.8942
850 1 8.95934 3.32189 19.657
862 3 10.4545 0.483085 18.9017
863 3 10.2246 -0.35489 20.4486
864 3 10.5131 1.35555 20.4442
865 3 9.86627 3.06515 19.0998
866 3 8.5277 4.16807 19.1118
867 3 9.2606 3.67791 20.6479
871 1 11.3049 2.13696 16.0527
872 2 12.816 1.88651 16.1571
873 2 13.3135 0.561152 16.1883
882 1 13.1832 4.41506 16.3032
885 3 10.8463 2.21565 17.0452
899 3 12.2234 4.46665 16.8273
1234 1 12.9338 3.17117 19.8845
1244 3 11.3801 5.13752 19.0973
1246 3 12.6326 2.81519 18.8936
1248 3 12.0269 3.4279 20.4417
8427 3 8.66823 -0.116461 17.0533
5436 1 -0.169156 7.70611 16.0491
5451 3 -0.041961 7.24945 17.0359
5492 2 -2.01521 5.68086 19.7517
5499 2 0.281368 6.54316 19.7586
5500 1 1.25338 7.72749 19.657
5501 2 -1.11543 6.77429 19.7869
5502 1 -1.64792 8.20941 19.8978
5515 3 2.16032 7.47075 19.0998
5517 3 1.55464 8.08351 20.6479
5435 2 -0.701631 9.14122 16.1601
5437 2 0.198153 10.2347 16.1952
5438 1 1.70925 9.9842 16.2995
5453 3 1.93793 9.06756 16.854
5454 3 2.22645 10.778 16.8496
5516 3 0.821752 8.57367 19.1118
5518 3 -1.77512 8.66602 18.911
5520 3 -0.977173 8.84966 20.4809
5807 3 -2.04645 11.1362 20.4297
5809 3 -0.247531 10.8602 19.0605
5811 3 0.550421 11.0438 20.6305
421 1 3.5989 6.54256 16.0527
422 2 5.11001 6.29211 16.1571
431 2 6.00979 7.38554 16.1923
435 3 3.14035 6.62125 17.0452
784 1 5.22788 7.57678 19.8845
796 3 4.92664 7.22079 18.8936
798 3 4.32093 7.83351 20.4417
5514 3 2.80717 5.76115 20.4442
432 1 5.4773 8.82066 16.3032
449 3 4.5174 8.87224 16.8273
450 3 6.14804 9.46091 16.8863
781 1 4.19128 10.3369 19.6473
793 3 3.96263 11.2536 19.0928
794 3 3.67412 9.54312 19.0973
795 3 3.73272 10.4156 20.6398
427 2 7.9041 5.82905 16.1952
429 2 7.40659 7.15441 16.164
786 1 8.12917 7.09486 19.6437
797 3 5.6595 6.73059 20.4297
799 3 7.45842 6.45464 19.0605
801 3 8.25637 6.63821 20.6305
782 2 5.70239 10.0865 19.7517
783 2 6.1999 8.76111 19.7829
785 2 7.5967 8.52998 19.7547
789 2 7.99897 10.9488 19.7586
791 2 6.60217 11.1799 19.7869
428 1 9.4152 5.5786 16.2995
430 1 8.37861 8.33873 16.0624
444 3 9.9324 6.37239 16.8496
800 3 9.08906 7.04329 19.1196
814 1 12.3531 8.18802 16.2899
827 3 12.7847 7.34184 16.8351
828 3 11.4462 8.44475 16.8471
1231 1 11.8972 5.93132 19.6473
1243 3 11.6686 6.84795 19.0928
1245 3 11.4387 6.01 20.6398
1259 3 12.8157 8.261 20.4219
447 3 8.67988 8.69474 17.0533
787 2 8.49648 9.62341 19.7899
788 1 10.0076 9.37296 19.8942
802 3 10.4661 9.29428 18.9017
803 3 10.2363 8.45631 20.4486
804 3 10.5248 10.1667 20.4442
811 1 11.3165 10.9482 16.0527
812 2 12.8276 10.6977 16.1571
813 2 13.3251 9.37235 16.1883
825 3 10.8579 11.0269 17.0452
5439 2 -0.299361 11.56 16.164
5440 1 0.672655 12.7443 16.0624
5457 3 0.973931 13.1003 17.0533
5792 2 -2.00356 14.4921 19.7517
5793 2 -1.50605 13.1667 19.7829
5795 2 -0.109253 12.9356 19.7547
5796 1 0.423222 11.5005 19.6437
5797 2 0.790531 14.029 19.7899
5798 1 2.30163 13.7786 19.8942
5799 2 0.29302 15.3544 19.7586
5800 1 1.26504 16.5387 19.657
5801 2 -1.10378 15.5855 19.7869
5802 1 -1.63627 17.0206 19.8978
5810 3 1.38311 11.4489 19.1196
5813 3 2.53031 12.8619 20.4486
5815 3 2.17197 16.282 19.0998
5817 3 1.5663 16.8947 20.6479
13056 1 -0.157507 16.5173 16.0491
13071 3 -0.0303123 16.0607 17.0359
5441 2 -1.69616 11.7911 16.1923
5460 3 -1.55791 13.8665 16.8863
721 1 3.61055 15.3538 16.0527
722 2 5.12166 15.1033 16.1571
723 2 5.61918 13.7779 16.1883
724 1 4.64715 12.5936 16.2899
731 2 6.02144 16.1967 16.1923
735 3 3.152 15.4324 17.0452
737 3 5.07877 11.7474 16.8351
738 3 3.74021 12.8503 16.8471
809 3 5.10979 12.6666 20.4219
8524 1 5.23952 16.388 19.8845
8536 3 4.93829 16.032 18.8936
8538 3 4.33258 16.6447 20.4417
5812 3 2.76016 13.6999 18.9017
5814 3 2.81883 14.5723 20.4442
725 2 7.01597 13.5468 16.1601
726 1 7.54845 12.1117 16.0491
727 2 7.91576 14.6403 16.1952
729 2 7.41824 15.9656 16.164
741 3 7.67564 11.655 17.0359
792 1 6.06969 12.615 19.8978
808 3 5.94249 13.0716 18.911
810 3 6.74043 13.2553 20.4809
8526 1 8.14082 15.9061 19.6437
8537 3 5.67115 15.5418 20.4297
8539 3 7.47007 15.2658 19.0605
8541 3 8.26802 15.4494 20.6305
728 1 9.42685 14.3898 16.2995
730 1 8.39026 17.1499 16.0624
743 3 9.65554 13.4732 16.854
744 3 9.94405 15.1836 16.8496
790 1 8.97099 12.1331 19.657
805 3 9.87792 11.8764 19.0998
806 3 8.53936 12.9793 19.1118
807 3 9.27225 12.4891 20.6479
822 1 13.1949 13.2263 16.3032
839 3 12.235 13.2778 16.8273
931 1 11.9089 14.7425 19.6473
934 1 12.9455 11.9824 19.8845
943 3 11.6802 15.6592 19.0928
944 3 11.3917 13.9487 19.0973
945 3 11.4503 14.8212 20.6398
946 3 12.6442 11.6264 18.8936
948 3 12.0385 12.2391 20.4417
959 3 12.8274 17.0722 20.4219
8540 3 9.10071 15.8545 19.1196
8554 1 12.3647 16.9992 16.2899
8567 3 12.7964 16.153 16.8351
8568 3 11.4578 17.2559 16.8471
2431 1 -2.3532 4.70883 26.8367
2432 2 -0.842095 4.45837 26.941
2433 2 -0.344581 3.13302 26.9722
2434 1 -1.31661 1.94868 27.0738
2435 2 1.05221 2.90189 26.944
2436 1 1.58469 1.46677 26.833
2437 2 1.952 3.99532 26.9792
2439 2 1.45449 5.32068 26.948
2443 3 -2.58185 5.62546 26.2822
2445 3 -2.81176 4.78751 27.8291
2446 3 -1.61784 1.5927 26.0829
2447 3 -0.884982 1.1025 27.6191
2448 3 -2.22355 2.20541 27.631
2449 3 0.91394 0.826552 26.2499
2450 3 2.54458 1.4152 26.3089
2451 3 1.71189 1.01012 27.8198
5912 2 -1.43447 0.664019 23.3463
5917 2 1.35962 0.200966 23.3845
5919 2 0.862108 1.52632 23.3533
5920 1 1.83412 2.71065 23.2517
5921 2 -0.534692 1.75745 23.3815
5922 1 -1.06718 3.19257 23.4925
5935 3 2.74106 2.45391 22.6945
5936 3 1.40249 3.55683 22.7064
5937 3 2.13538 3.06666 24.2426
5938 3 -1.1944 3.64917 22.5057
5939 3 -2.02707 3.24415 24.0166
5940 3 -0.396434 3.83282 24.0756
2444 3 -2.87037 3.91503 26.2866
1201 1 4.77202 5.32007 23.242
1214 3 4.25485 4.52627 22.6919
1215 3 4.31347 5.39875 24.2345
1218 3 4.90168 2.81666 24.0363
2438 1 3.4631 3.74487 27.0835
2452 3 3.92163 3.66619 26.091
2453 3 3.69177 2.82822 27.638
2454 3 3.98029 4.53866 27.6335
5918 1 2.87072 -0.0494843 23.4888
5932 3 3.32925 -0.128163 22.4963
5934 3 3.38791 0.744312 24.0389
1202 2 6.28313 5.06962 23.3463
1203 2 6.78064 3.74426 23.3776
1204 1 5.80862 2.55993 23.4792
1205 2 8.17744 3.51313 23.3493
1216 3 5.50738 2.20394 22.4882
1217 3 6.24024 1.71375 24.0244
1219 3 8.03917 1.4378 22.6552
1261 1 5.35275 0.303231 26.8367
1262 2 6.86385 0.0527763 26.941
1271 2 7.76364 1.14621 26.9762
1272 1 7.23115 2.58133 27.0871
1273 3 5.1241 1.21987 26.2822
1275 3 4.89419 0.381914 27.8291
1288 3 7.10395 3.03793 26.1003
1289 3 6.27125 2.63291 27.6112
1290 3 7.90189 3.22157 27.6703
1206 1 8.70992 2.07802 23.2383
1207 2 9.07722 4.60656 23.3845
1208 1 10.5883 4.35611 23.4888
1220 3 9.66981 2.02644 22.7143
1221 3 8.8371 1.62136 24.2251
1222 3 11.0469 4.27743 22.4963
1223 3 10.817 3.43947 24.0433
1224 3 11.1055 5.14991 24.0389
1267 2 9.65795 -0.410279 26.9792
1269 2 9.16044 0.915078 26.948
1270 1 10.1325 2.0994 26.8463
1284 3 11.6862 0.133063 27.6335
1285 3 11.0394 1.84267 26.2892
1286 3 9.70082 2.94558 26.3011
1287 3 10.4337 2.45542 27.8372
1291 1 12.478 0.914473 23.242
1303 3 12.2493 1.83111 22.6875
1304 3 11.9608 0.120676 22.6919
1305 3 12.0194 0.993153 24.2345
1339 3 8.63154 5.23215 26.2499
1341 3 9.42949 5.41572 27.8198
2440 1 2.4265 6.505 26.8463
2441 2 0.0576868 5.5518 26.9762
2442 1 -0.474802 6.98692 27.0871
2456 3 1.99487 7.35118 26.3011
2457 3 2.72776 6.86102 27.8372
2458 3 -0.602004 7.44353 26.1003
2459 3 -1.4347 7.03851 27.6112
2460 3 0.195943 7.62717 27.6703
5853 2 -0.925305 8.14986 23.3776
5854 1 -1.89733 6.96553 23.4792
5855 2 0.47149 7.91874 23.3493
5856 1 1.00397 6.48362 23.2383
5866 3 -2.19856 6.60954 22.4882
5867 3 -1.46571 6.11935 24.0244
5869 3 0.333219 5.8434 22.6552
5870 3 1.96386 6.43204 22.7143
5871 3 1.13115 6.02696 24.2251
2134 1 -1.30495 10.7599 27.0738
2136 1 1.59634 10.278 26.833
2146 3 -1.60619 10.4039 26.0829
2147 3 -0.873329 9.9137 27.6191
2148 3 -2.2119 11.0166 27.631
2149 3 0.925593 9.63775 26.2499
2150 3 2.55624 10.2264 26.3089
2151 3 1.72354 9.82132 27.8198
5852 2 -1.42282 9.47522 23.3463
5857 2 1.37127 9.01217 23.3845
5859 2 0.87376 10.3375 23.3533
5861 2 -0.523039 10.5686 23.3815
5875 3 2.75271 11.2651 22.6945
1213 3 4.54337 6.23671 22.6875
1334 3 4.84723 8.32063 26.2866
2455 3 3.33344 6.24826 26.2892
5873 3 3.11105 7.84507 24.0433
5858 1 2.88237 8.76171 23.4888
5872 3 3.3409 8.68304 22.4963
5874 3 3.39956 9.55551 24.0389
1211 2 7.18291 6.16305 23.3815
1212 1 6.65042 7.59817 23.4925
1228 3 6.52321 8.05477 22.5057
1229 3 5.69053 7.64975 24.0166
1230 3 7.32117 8.23842 24.0756
1323 2 7.37302 7.53862 26.9722
1324 1 6.401 6.35429 27.0738
1336 3 6.09976 5.9983 26.0829
1337 3 6.83262 5.50811 27.6191
1338 3 5.49405 6.61102 27.631
904 1 5.82027 11.3711 23.4792
916 3 5.51904 11.0151 22.4882
917 3 6.2519 10.5249 24.0244
919 3 8.05082 10.249 22.6552
1321 1 5.3644 9.11443 26.8367
1322 2 6.87551 8.86398 26.941
1331 2 7.77529 9.95741 26.9762
1332 1 7.2428 11.3925 27.0871
1333 3 5.13575 10.0311 26.2822
1335 3 4.90584 9.19311 27.8291
1349 3 6.2829 11.4441 27.6112
1209 2 8.57971 5.93192 23.3533
1210 1 9.55173 7.11625 23.2517
1225 3 10.4587 6.85951 22.6945
1226 3 9.12009 7.96243 22.7064
1227 3 9.85299 7.47226 24.2426
1325 2 8.76982 7.30749 26.944
1326 1 9.30229 5.87238 26.833
1328 1 11.1807 8.15047 27.0835
1340 3 10.2622 5.8208 26.3089
1342 3 11.6392 8.07179 26.091
1343 3 11.4094 7.23382 27.638
1368 3 12.6193 7.22226 24.0363
906 1 8.72157 10.8892 23.2384
920 3 9.68147 10.8376 22.7143
921 3 8.84876 10.4326 24.2251
1327 2 9.6696 8.40092 26.9792
1329 2 9.17209 9.72628 26.948
1330 1 10.1441 10.9106 26.8463
1344 3 11.6979 8.94426 27.6335
1345 3 11.051 10.6539 26.2892
1347 3 10.4454 11.2666 27.8372
1351 1 12.4896 9.72567 23.242
1363 3 12.261 10.6423 22.6875
1364 3 11.9725 8.93188 22.6919
1365 3 12.0311 9.80435 24.2345
2131 1 -2.34155 13.52 26.8367
2132 2 -0.830443 13.2696 26.941
2133 2 -0.332929 11.9442 26.9722
2135 2 1.06387 11.7131 26.944
2137 2 1.96365 12.8065 26.9792
2139 2 1.46614 14.1319 26.948
2140 1 2.43815 15.3162 26.8463
2141 2 0.0693383 14.363 26.9762
2142 1 -0.463151 15.7981 27.0871
2143 3 -2.5702 14.4367 26.2822
2145 3 -2.80011 13.5987 27.8291
2156 3 2.00652 16.1624 26.3011
2157 3 2.73941 15.6722 27.8372
2158 3 -0.590352 16.2547 26.1003
2159 3 -1.42305 15.8497 27.6112
2160 3 0.207593 16.4384 27.6703
5860 1 1.84578 11.5218 23.2517
5862 1 -1.05553 12.0038 23.4925
5876 3 1.41414 12.368 22.7064
5877 3 2.14704 11.8779 24.2426
5878 3 -1.18274 12.4604 22.5057
5879 3 -2.01542 12.0554 24.0166
5880 3 -0.384782 12.644 24.0756
13593 2 -0.913657 16.9611 23.3776
13594 1 -1.88568 15.7767 23.4792
13595 2 0.483138 16.7299 23.3493
13596 1 1.01562 15.2948 23.2384
13606 3 -2.18692 15.4207 22.4882
13607 3 -1.45406 14.9305 24.0244
13609 3 0.344869 14.6546 22.6552
13610 3 1.97551 15.2432 22.7143
13611 3 1.1428 14.8382 24.2251
2144 3 -2.85872 12.7262 26.2866
901 1 4.78367 14.1313 23.242
913 3 4.55502 15.0479 22.6875
914 3 4.2665 13.3375 22.6919
915 3 4.32512 14.2099 24.2345
918 3 4.91333 11.6279 24.0363
2138 1 3.47475 12.5561 27.0835
2152 3 3.93328 12.4774 26.091
2153 3 3.70342 11.6394 27.638
2154 3 3.99194 13.3499 27.6335
2155 3 3.34509 15.0595 26.2892
8954 3 4.85888 17.1318 26.2866
13613 3 3.12269 16.6563 24.0433
902 2 6.29478 13.8808 23.3463
903 2 6.7923 12.5555 23.3776
905 2 8.18909 12.3243 23.3493
911 2 7.19456 14.9742 23.3815
912 1 6.66207 16.4094 23.4925
928 3 6.53486 16.866 22.5057
929 3 5.70218 16.461 24.0166
930 3 7.33282 17.0496 24.0756
1348 3 7.1156 11.8491 26.1003
1350 3 7.91354 12.0328 27.6703
8943 2 7.38467 16.3498 26.9722
8944 1 6.41264 15.1655 27.0738
8956 3 6.11141 14.8095 26.0829
8957 3 6.84427 14.3193 27.6191
8958 3 5.5057 15.4222 27.631
8988 3 12.6309 16.0335 24.0363
8963 3 11.421 16.045 27.638
8962 3 11.6509 16.883 26.091
8961 3 9.44114 14.2269 27.8198
8960 3 10.2738 14.632 26.3089
907 2 9.08888 13.4178 23.3845
908 1 10.6 13.1673 23.4888
909 2 8.59136 14.7431 23.3533
910 1 9.56338 15.9274 23.2517
922 3 11.0585 13.0886 22.4963
923 3 10.8286 12.2507 24.0433
924 3 11.1172 13.9611 24.0389
925 3 10.4703 15.6707 22.6945
926 3 9.13174 16.7736 22.7064
927 3 9.86464 16.2835 24.2426
1346 3 9.71247 11.7568 26.3011
8959 3 8.64319 14.0434 26.2499
8945 2 8.78146 16.1187 26.944
8946 1 9.31394 14.6836 26.833
8948 1 11.1923 16.9617 27.0835
2491 1 -1.77246 -0.308015 30.4314
2501 2 0.638429 0.53496 30.5709
2502 1 0.105939 1.97008 30.6818
2503 3 -2.00111 0.608622 29.8768
2505 3 -2.23101 -0.229338 31.4238
2518 3 -0.021274 2.42668 29.695
2519 3 -0.853951 2.02166 31.2059
2520 3 0.776688 2.61033 31.2649
2567 3 -0.292589 4.89686 31.2137
2611 1 -1.18008 3.48633 34.026
2612 2 0.331024 3.23588 34.1304
2613 2 0.82854 1.91052 34.1616
2614 1 -0.143484 0.726188 34.2632
2623 3 -1.40873 4.40297 33.4715