LAMMPS (27 Jun 2024)
include lmp.in
#smiles: Cc1c(C)c(C)c(C)c(C)c1C
units real
atom_style full

dimension 3
boundary p p p  #p p m

bond_style hybrid harmonic
angle_style hybrid harmonic
dihedral_style hybrid charmm
# special_bonds amber # same as special_bonds lj 0.0 0.0 0.5000 coul 0.0 0.0 0.83333
special_bonds amber lj 0.0 0.0 0.50000 coul 0.0 0.0 0.83333 angle yes dihedral no
box tilt large

The 'box' command has been removed and will be ignored


read_data lmp.dat
Reading data file ...
  triclinic box = (0 0 0) to (30.8471 17.6224 57.5148) with tilt (0.0233 -6.027 -0.9687)
  12 by 8 by 16 MPI processor grid
  reading atoms ...
  3840 atoms
  reading velocities ...
  3840 velocities
  scanning bonds ...
  4 = max bonds/atom
  scanning angles ...
  6 = max angles/atom
  scanning dihedrals ...
  8 = max dihedrals/atom
  triclinic box = (0 0 0) to (30.8471 17.6224 57.5148) with tilt (0.0233 -6.027 -0.9687)
  12 by 8 by 16 MPI processor grid
  reading bonds ...
  3840 bonds
  reading angles ...
  6912 angles
  reading dihedrals ...
  3840 dihedrals
Finding 1-2 1-3 1-4 neighbors ...
  special bond factors lj:    0        0        0.5     
  special bond factors coul:  0        0        0.83333 
     4 = max # of 1-2 neighbors
     7 = max # of 1-3 neighbors
    17 = max # of 1-4 neighbors
  13824 = # of 1-3 neighbors before angle trim
  13824 = # of 1-3 neighbors after angle trim
    19 = max # of special neighbors
  special bonds CPU = 4.793 seconds
  read_data CPU = 4.927 seconds

neighbor 2.0 multi
neigh_modify every 2 delay 4 check yes
#neigh_modify every 2 delay 10

pair_style lj/cut/coul/long 9.0 9.0
pair_modify mix arithmetic shift no tail yes
kspace_style pppm 0.0005
kspace_modify gewald 0.29202898720871845 mesh 32 32 60 order 6

pair_coeff 1 1   0.1094000   3.3996695
pair_coeff 2 2   0.0860000   3.3996695
pair_coeff 3 3   0.0157000   2.6495328

#pair_modify mix arithmetic
thermo_style custom step temp vol press etotal pe ke epair ecoul elong evdwl ebond eangle edihed eimp emol etail #    cella cellb cellc cellalpha cellbeta cellgamma density pxx pyy pzz pxy pxy pyz
thermo_modify lost ignore flush yes

#compute peatom all pe/atom
#dump 1 all custom 1 dump.lammpstrj id type q x y z fx fy fz c_peatom element
#dump_modify 1 sort id pad 9 element C C H

#minimize 1e-5 1e-5 100 100
#run 0

variable temperature equal      350.000
variable endtemperature equal      390.000
variable patm equal        1.000
variable dt equal        1.000
variable trelax1 equal   1000000
variable trelax2 equal   10000000
variable thermo equal	5000
variable ele_string string "C C H"
replicate  6 5 3
Replication is creating a 6x5x3 = 90 times larger system...
  triclinic box = (0 0 0) to (185.0826 88.112 172.5444) with tilt (0.1165 -18.081 -2.9061)
  16 by 8 by 12 MPI processor grid
  345600 atoms
  345600 bonds
  622080 angles
  345600 dihedrals
Finding 1-2 1-3 1-4 neighbors ...
  special bond factors lj:    0        0        0.5     
  special bond factors coul:  0        0        0.83333 
     4 = max # of 1-2 neighbors
     7 = max # of 1-3 neighbors
    17 = max # of 1-4 neighbors
  1244160 = # of 1-3 neighbors before angle trim
  1244160 = # of 1-3 neighbors after angle trim
    19 = max # of special neighbors
  special bonds CPU = 0.642 seconds
  replicate CPU = 0.718 seconds

variable tdamp      equal 100*${dt}
variable tdamp      equal 100*1
variable pdamp      equal 100*${dt}
variable pdamp      equal 100*1
variable pe         equal pe
variable temp       equal temp

# for units real, pressure is in [atmospheres] = 0.101325 [MPa]
variable sxx        equal "-pxx*0.101325"
variable syy        equal "-pyy*0.101325"
variable szz        equal "-pzz*0.101325"
variable sxz        equal "-pxz*0.101325"
variable syz        equal "-pyz*0.101325"
variable sxy        equal "-pxy*0.101325"
variable    xcm     equal xcm(all,x)
variable    ycm     equal xcm(all,y)
variable    zcm     equal xcm(all,z)
variable    xhi     equal xhi
variable    yhi     equal yhi
variable    zhi     equal zhi
variable    xlo     equal xlo
variable    ylo     equal ylo
variable    zlo     equal zlo
variable    xy      equal xy
variable    xz      equal xz
variable    yz      equal yz

thermo          ${thermo}
thermo          5000
neighbor        1.0    bin
neigh_modify    every 1 delay 5 check yes
thermo_style    custom step temp ke pe etotal lx ly lz xy xz yz pxx pyy pzz pxy pxz pyz press vol
WARNING: New thermo_style command, previous thermo_modify settings will be lost (../output.cpp:904)
thermo_modify   lost warn norm yes
timestep 	    ${dt}
timestep 	    1

#======================== Energy minimization
min_style       cg
minimize        1.0e-25 1.0e-25 100000 1000000

CITE-CITE-CITE-CITE-CITE-CITE-CITE-CITE-CITE-CITE-CITE-CITE-CITE

Your simulation uses code contributions which should be cited:

- Type Label Framework: https://doi.org/10.1021/acs.jpcb.3c08419

@Article{Gissinger24,
 author = {Jacob R. Gissinger, Ilia Nikiforov, Yaser Afshar, Brendon Waters, Moon-ki Choi, Daniel S. Karls, Alexander Stukowski, Wonpil Im, Hendrik Heinz, Axel Kohlmeyer, and Ellad B. Tadmor},
 title = {Type Label Framework for Bonded Force Fields in LAMMPS},
 journal = {J. Phys. Chem. B},
 year =    2024,
 volume =  128,
 number =  13,
 pages =   {3282–-3297}
}

- neighbor multi command: doi:10.1016/j.cpc.2008.03.005, doi:10.1007/s40571-020-00361-2

@Article{Intveld08,
 author =  {in 't Veld, P. J. and S. J.~Plimpton and G. S. Grest},
 title =   {Accurate and Efficient Methods for Modeling Colloidal
            Mixtures in an Explicit Solvent using Molecular Dynamics},
 journal = {Comput.\ Phys.\ Commut.},
 year =    2008,
 volume =  179,
 pages =   {320--329}
}

@article{Shire2020,
 author = {Shire, Tom and Hanley, Kevin J. and Stratford, Kevin},
 title = {{DEM} Simulations of Polydisperse Media: Efficient Contact
          Detection Applied to Investigate the Quasi-Static Limit},
 journal = {Computational Particle Mechanics},
 year = {2020}
@article{Monti2022,
 author = {Monti, Joseph M. and Clemmer, Joel T. and Srivastava, 
           Ishan and Silbert, Leonardo E. and Grest, Gary S. 
           and Lechman, Jeremy B.},
 title = {Large-scale frictionless jamming with power-law particle 
          size distributions},
 journal = {Phys. Rev. E},
 volume = {106}
 issue = {3}
 year = {2022}
}

CITE-CITE-CITE-CITE-CITE-CITE-CITE-CITE-CITE-CITE-CITE-CITE-CITE

Switching to 'neigh_modify every 1 delay 0 check yes' setting during minimization
PPPM initialization ...
  using 12-bit tables for long-range coulomb (../kspace.cpp:342)
  G vector (1/distance) = 0.29202899
  grid = 32 32 60
  stencil order = 6
  estimated absolute RMS force accuracy = 2.6081413
  estimated relative force accuracy = 0.00785434
  using double precision KISS FFT
  3d grid and FFT values/proc = 1188 64
Generated 3 of 3 mixed pair_coeff terms from arithmetic mixing rule
Neighbor list info ...
  update: every = 1 steps, delay = 0 steps, check = yes
  max neighbors/atom: 2000, page size: 100000
  master list distance cutoff = 10
  ghost atom cutoff = 10
  binsize = 5, bins = 41 19 35
  1 neighbor lists, perpetual/occasional/extra = 1 0 0
  (1) pair lj/cut/coul/long, perpetual
      attributes: half, newton on
      pair build: half/bin/newton/tri
      stencil: half/bin/3d/tri
      bin: standard
Per MPI rank memory allocation (min/avg/max) = 14.86 | 14.87 | 14.87 Mbytes
   Step          Temp          KinEng         PotEng         TotEng           Lx             Ly             Lz             Xy             Xz             Yz            Pxx            Pyy            Pzz            Pxy            Pxz            Pyz           Press          Volume    
         0   0              0              4.2825981      4.2825981      185.0826       88.112         172.5444       0.1165        -18.081        -2.9061         137338.94      121511.81      216523.36     -4296.0544     -4806.9354      2649.0189      158458.04      2813853.7    
        66   0              0             -0.29789588    -0.29789588     185.0826       88.112         172.5444       0.1165        -18.081        -2.9061        -3083.845      -2732.6436      932.26151     -920.4361      -782.49231      327.60223     -1628.0757      2813853.7    
Loop time of 1.57893 on 1536 procs for 66 steps with 345600 atoms

99.4% CPU use with 1536 MPI tasks x no OpenMP threads

Minimization stats:
  Stopping criterion = linesearch alpha is zero
  Energy initial, next-to-last, final = 
      4.28259812952726 -0.297895881619829 -0.297895881619834
  Force two-norm initial, final = 54425.137 25.497584
  Force max component initial, final = 140.90251 0.10322105
  Final line search alpha, max atom move = 6.5882981e-06 6.8005102e-07
  Iterations, force evaluations = 66 163

MPI task timing breakdown:
Section |  min time  |  avg time  |  max time  |%varavg| %total
---------------------------------------------------------------
Pair    | 0.25145    | 0.2664     | 0.5438     |   2.2 | 16.87
Bond    | 0.0054877  | 0.0064442  | 0.0081918  |   0.8 |  0.41
Kspace  | 0.74333    | 1.0091     | 1.0497     |   1.4 | 63.91
Neigh   | 0          | 0          | 0          |   0.0 |  0.00
Comm    | 0.067952   | 0.11207    | 0.17448    |   5.1 |  7.10
Output  | 0          | 0          | 0          |   0.0 |  0.00
Modify  | 0          | 0          | 0          |   0.0 |  0.00
Other   |            | 0.1849     |            |       | 11.71

Nlocal:            225 ave         231 max         220 min
Histogram: 384 0 0 576 0 192 0 0 0 384
Nghost:        4113.75 ave        4122 max        4104 min
Histogram: 192 384 0 0 192 0 0 192 192 384
Neighs:        57427.5 ave       59237 max       55942 min
Histogram: 314 70 6 468 126 164 4 0 124 260

Total # of neighbors = 88208640
Ave neighs/atom = 255.23333
Ave special neighs/atom = 9.4
Neighbor list builds = 0
Dangerous builds = 0
dump            1 all custom 10000 0.dump element id mol type x y z
undump          1

#========================= Global setting for NPT simulation
fix             langevin all langevin ${temperature} ${temperature} ${tdamp} 32258678 zero yes
fix             langevin all langevin 350 ${temperature} ${tdamp} 32258678 zero yes
fix             langevin all langevin 350 350 ${tdamp} 32258678 zero yes
fix             langevin all langevin 350 350 100 32258678 zero yes

#======================== NPT equilibration
velocity        all create ${temperature} 1938072 mom yes rot no
velocity        all create 350 1938072 mom yes rot no
fix             1 all nph tri ${patm} ${patm} ${pdamp} fixedpoint ${xcm} ${ycm} ${zcm} flip no
fix             1 all nph tri 1 ${patm} ${pdamp} fixedpoint ${xcm} ${ycm} ${zcm} flip no
fix             1 all nph tri 1 1 ${pdamp} fixedpoint ${xcm} ${ycm} ${zcm} flip no
fix             1 all nph tri 1 1 100 fixedpoint ${xcm} ${ycm} ${zcm} flip no
fix             1 all nph tri 1 1 100 fixedpoint 86.4504403651684 ${ycm} ${zcm} flip no
fix             1 all nph tri 1 1 100 fixedpoint 86.4504403651684 42.1898969780332 ${zcm} flip no
fix             1 all nph tri 1 1 100 fixedpoint 86.4504403651684 42.1898969780332 86.2722299426625 flip no


dump            1 all custom 20000 300_equilibrium.*.dump element id mol type x y z
dump_modify     1 element ${ele_string}
dump_modify     1 element C C H
run             ${trelax1}
run             1000000
PPPM initialization ...
  using 12-bit tables for long-range coulomb (../kspace.cpp:342)
  G vector (1/distance) = 0.29202899
  grid = 32 32 60
  stencil order = 6
  estimated absolute RMS force accuracy = 2.6081413
  estimated relative force accuracy = 0.00785434
  using double precision KISS FFT
  3d grid and FFT values/proc = 1188 64
Generated 3 of 3 mixed pair_coeff terms from arithmetic mixing rule
Per MPI rank memory allocation (min/avg/max) = 13.74 | 13.74 | 13.74 Mbytes
   Step          Temp          KinEng         PotEng         TotEng           Lx             Ly             Lz             Xy             Xz             Yz            Pxx            Pyy            Pzz            Pxy            Pxz            Pyz           Press          Volume    
        66   350            1.0432805     -0.29789588     0.74538462     185.0826       88.112         172.5444       0.1165        -18.081        -2.9061         2769.7751      3126.215       6792.0343     -909.32709     -776.98055      338.64399      4229.3414      2813853.7    
      5000   350.21378      1.0439177      0.84414022     1.8880579      189.97081      89.930911      184.21236     -0.2389482     -23.219311     -6.0653347      172.74546     -130.16191      17.091723     -58.540044      154.71017     -46.571245      19.891757      3147129.7    
     10000   349.73364      1.0424865      0.84398621     1.8864727      190.0745       89.939639      184.28892     -0.35519858    -23.667169     -5.3299756      40.370585     -4.3830499     -91.902401     -67.980977      0.99790855    -41.067991     -18.638289      3150461.8    
     15000   350.83711      1.0457758      0.84540117     1.8911769      190.13758      89.923993      184.2138      -0.33177282    -23.3311       -6.4598149      85.355536     -13.353188     -138.95317      206.89692      47.838717     -46.715124     -22.316941      3149674.7    
     20000   350.80088      1.0456678      0.84531657     1.8909843      190.20953      89.921457      184.25016     -0.37426428    -23.642207     -5.9046285     -188.56139     -194.77977      24.229914     -33.932163      19.470979     -16.801125     -119.70375      3151399.8    
     25000   349.99443      1.0432639      0.8473768      1.8906407      190.11592      89.893397      184.31399     -0.32387334    -23.88178      -4.7283852     -39.747241      95.419005      174.50235     -48.621283      26.622388      18.454932      76.724705      3149956.6    
     30000   350.20023      1.0438773      0.84552975     1.8894071      190.14208      89.9444        184.32142     -0.30420225    -24.578575     -5.3044791      318.64369      216.23423      92.23708      -5.209566       32.968049      91.822811      209.03833      3152304.7    
     35000   349.52417      1.0418621      0.84834743     1.8902096      190.12935      89.939057      184.34053     -0.32973395    -23.956642     -5.9104299      153.21442      282.70459      103.80377     -9.2021368      40.695296     -2.8355835      179.90759      3152233.1    
     40000   350.53576      1.0448775      0.84544069     1.8903182      190.14248      89.974753      184.33771     -0.41723449    -24.625084     -5.1033544     -275.58792     -123.62116     -123.63388      242.24403      30.701615      209.38967     -174.28099      3153653.7    
     45000   349.7302       1.0424763      0.8466451      1.8891214      190.02202      89.933901      184.31464     -0.32154947    -23.01127      -5.9070722      291.41757      75.6737        66.358084     -145.58802     -113.54498      27.017685      144.48312      3149830.6    
     50000   349.9741       1.0432033      0.84546207     1.8886654      190.13339      89.929979      184.33853     -0.42061468    -24.096206     -5.4079048      72.379891     -174.00259      100.65328      83.78683       147.42121      18.330471     -0.32313991     3151947.7    
     55000   350.69105      1.0453404      0.84866336     1.8940038      190.14845      89.969243      184.22431     -0.31842645    -24.342417     -5.075395       173.02586      59.093214      204.58673      110.52784     -52.543495     -81.272155      145.5686       3151619.6    
     60000   349.81724      1.0427357      0.84406251     1.8867982      190.077        89.920129      184.45567     -0.44615882    -23.941047     -4.7462658     -111.02247      197.10359     -97.354541     -160.38831      59.91407       28.891891     -3.7578087      3152669.8    
     65000   350.09219      1.0435553      0.84572826     1.8892836      190.10144      89.896323      184.29487     -0.39667199    -23.839149     -4.5790971     -103.9458      -7.5767809      141.28783      84.201259      134.44412     -189.31318      9.9217483      3149492.5    
     70000   349.37891      1.0414292      0.84722216     1.8886513      190.17002      89.948012      184.42692     -0.30402714    -24.435461     -4.8163826      68.680237      167.4512      -151.91951     -331.98628      51.002757      15.374502      28.070644      3154699      
     75000   349.8099       1.0427138      0.84590113     1.888615       190.15087      89.873203      184.28156     -0.31740276    -23.70646      -4.9840298     -432.77675      167.35655     -47.390026      24.705121      13.868625      39.389506     -104.27007      3149273.8    
     80000   349.21395      1.0409374      0.84837951     1.889317       190.20453      89.964595      184.50952     -0.31103668    -24.240048     -5.1442118      113.63509      262.44539     -279.65185      48.853694      95.610997      24.253865      32.142879      3157266.7    
     85000   350.36297      1.0443624      0.84716004     1.8915225      190.14431      89.888575      184.44626     -0.38675665    -24.189357     -4.5914808     -37.764836      398.27032     -57.126054      25.90309       62.964373      105.49398      101.12648      3152518.7    
     90000   349.21309      1.0409349      0.84674256     1.8876775      190.20002      89.884529      184.3362      -0.32716686    -24.309465     -5.0892506     -236.51003     -79.723507     -24.600615      196.8572      -78.417264     -89.342252     -113.61138      3151418.8    
     95000   349.99847      1.0432759      0.84632555     1.8896015      190.21717      89.945723      184.37744     -0.32593839    -24.419778     -5.6498205      241.05255      19.167217      74.730834      148.09795     -195.47421     -22.540793      111.6502       3154554.4    
    100000   350.34678      1.0443142      0.84554832     1.8898625      190.07745      89.947868      184.35973     -0.35157835    -23.95765      -6.0217857     -126.43969     -20.866851     -66.828818     -148.40585      85.990219      69.889307     -71.378454      3152009.6    
    105000   350.85865      1.04584        0.84517459     1.8910146      190.03833      89.925367      184.27264     -0.27596365    -23.447147     -6.4419436     -67.540792     -169.85247     -5.6828837     -135.49021      51.78608       16.600413     -81.025382      3149084.2    
    110000   351.06677      1.0464603      0.84562172     1.892082       190.1622       89.951224      184.35797     -0.39824693    -24.567384     -4.9169834      98.282378      143.08328      89.17403      -193.79598     -112.52086     -16.210172      110.1799       3153502.6    
    115000   349.77825      1.0426195      0.84388724     1.8865067      190.10403      89.903054      184.37055     -0.39471454    -24.329292     -5.0835418     -74.455906      143.47224      143.46499      58.474877     -37.847128      89.450361      70.827109      3151064.6    
    120000   349.55188      1.0419447      0.84562853     1.8875733      190.06329      89.904272      184.26614     -0.34487292    -23.435267     -5.0964637     -180.82077     -130.51895     -120.98559     -137.93248      91.870747     -49.52954      -144.10844      3148648.1    
    125000   350.54924      1.0449177      0.84443103     1.8893487      190.01909      89.886812      184.24837     -0.3861552     -23.934792     -4.6133619      84.759337     -30.842336      74.776781      110.33215      220.82634      77.92761       42.897927      3147000.9    
    130000   349.49354      1.0417709      0.84761319     1.889384       190.14329      89.899037      184.41473     -0.31233087    -23.990385     -4.9107942      285.41875     -28.993673     -192.71522     -175.15579      99.538509     -33.582965      21.236616      3152329.9    
    135000   349.42707      1.0415727      0.84835859     1.8899313      190.18814      89.978614      184.42788     -0.23193245    -24.532878     -4.9094733     -93.967805     -202.18884      144.97949      13.685125      150.76341     -1.9274572     -50.392385      3156089.4    
    140000   349.64308      1.0422166      0.84568233     1.8878989      190.12219      89.960765      184.19876     -0.31609634    -23.779102     -5.2668985     -411.23265     -515.85299     -16.658436      52.164223     -10.514766     -0.29989504    -314.58136      3150450.4    
    145000   349.43089      1.0415841      0.84614228     1.8877264      190.16903      89.924919      184.3459      -0.37455401    -24.451753     -5.5021356      54.166698      21.134902      260.03515      110.23708     -13.239474      1.3533929      111.77892      3152487.1    
    150000   350.11323      1.043618       0.84496423     1.8885822      190.12175      89.920972      184.27626     -0.37215298    -23.874645     -5.4337081      119.24882      114.39021      21.777431     -39.368429     -81.7104        75.39393       85.13882       3150374.5    
    155000   349.94409      1.0431138      0.84774538     1.8908592      190.0953       89.986673      184.26962     -0.3493485     -23.572759     -5.8153744     -222.52502     -215.30841      114.83641      361.431        61.096523     -13.276519     -107.66567      3152124.1    
    160000   350.23811      1.0439903      0.84519369     1.889184       190.18843      89.894065      184.32393     -0.36647732    -23.756965     -6.8065893     -276.45675     -112.92127      145.20121      291.32486     -17.499231     -88.966336     -81.39227       3151351.3    
    165000   350.59657      1.0450588      0.84748659     1.8925454      190.22426      89.947018      184.30686     -0.3455159     -23.895991     -5.4096371     -4.9959492     -542.27177     -27.399757      8.3613722     -173.38902      39.241281     -191.55583      3153509.9    
    170000   349.88921      1.0429502      0.84613357     1.8890838      190.12886      89.933001      184.27184     -0.32127618    -23.426178     -5.3061927     -210.9637      -5.806696       101.04758      147.74559     -60.987953      96.253571     -38.574271      3150838.3    
    175000   349.96532      1.0431771      0.84437022     1.8875473      190.20883      89.900805      184.32809     -0.36203789    -23.911881     -5.7978987      114.3816      -42.586784     -340.18335      123.02692     -11.273188      5.289863      -89.462844      3151997      
    180000   350.03567      1.0433868      0.84718737     1.8905742      190.10678      89.902289      184.15694     -0.37605104    -23.517636     -4.7116954     -319.53709     -473.01485     -9.1648823     -168.93782      0.47832449    -41.868808     -267.23894      3147432.7    
    185000   350.49944      1.0447692      0.84876101     1.8935302      190.14092      89.977174      184.42785     -0.30631772    -23.875129     -5.7480974     -397.38507     -17.473778     -77.219076     -129.95943     -188.63575     -13.420798     -164.02598      3155254.8    
    190000   350.01219      1.0433168      0.84731672     1.8906336      190.08115      89.906555      184.35254     -0.3511686     -23.163298     -5.6316948      52.075771     -230.63389     -3.7219375     -4.8935476     -22.874637      46.472772     -60.760019      3150500.3    
    195000   350.01614      1.0433286      0.84614929     1.8894779      190.10315      89.912438      184.29953     -0.30776565    -24.095253     -5.2657511     -209.19122      161.79863     -75.141793     -189.22638     -71.513994     -93.540819     -40.844795      3150165      
    200000   349.78029      1.0426256      0.84828593     1.8909115      190.08046      89.968195      184.26781     -0.30961985    -24.028874     -4.850604       182.08463     -104.94612      140.87776     -99.167069      17.343458     -4.3991916      72.672091      3151199.8    
    205000   349.56439      1.041982       0.84551533     1.8874974      190.249        89.92555       184.30098     -0.38273675    -24.327786     -5.3728797     -140.35311      144.03841     -264.73333      134.4009       131.16875      6.6592834     -87.016013      3153066.6    
    210000   350.58248      1.0450168      0.84621609     1.8912328      190.05886      89.960952      184.30552     -0.44479686    -23.370159     -5.8113622      43.028015     -136.72839     -272.31388      27.416205      108.8121      -206.18143     -122.00475      3151233.1    
    215000   350.14236      1.0437048      0.84540307     1.8891079      189.96074      89.990641      184.25457     -0.32895665    -22.366874     -4.9359443     -57.65856      -429.61248      22.649664      48.496627     -56.56002      -99.000555     -154.87379      3149774.5    
    220000   349.43132      1.0415854      0.84300676     1.8845922      190.07537      89.917917      184.40098     -0.34741884    -23.59498      -4.8761041     -75.987457     -126.24243     -111.98373     -163.47003      8.4679705     -21.531748     -104.73787      3151630.6    
    225000   350.10148      1.043583       0.84588922     1.8894722      190.15987      89.904969      184.32683     -0.35041629    -23.795634     -5.2351367     -381.03844     -117.45009     -2.5072865     -159.46458      16.12822       32.126998     -166.99861      3151310      
    230000   350.01491      1.0433249      0.84967459     1.8929995      190.19791      89.904963      184.27538     -0.28990295    -24.063404     -5.2664547     -302.59627      0.83989289    -166.91201     -136.53788      110.99028      73.425888     -156.2228       3151060.4    
    235000   349.23062      1.0409871      0.84487109     1.8858582      190.09865      89.877123      184.13786     -0.35141741    -23.665648     -5.4610353     -356.26863      159.41443      104.47552     -88.365319      0.88934345    -128.2803      -30.792895      3146090.9    
    240000   350.42557      1.044549       0.84571694     1.890266       190.08133      89.941056      184.2716      -0.27274531    -23.789799     -6.1796111     -135.57502      7.7744199      76.05146      -73.448355      34.29329      -56.051978     -17.249713      3150328.6    
    245000   350.40502      1.0444878      0.84400274     1.8884905      190.09462      89.904219      184.28514     -0.37961799    -23.811723     -5.268639      -169.27327      201.60877     -92.657281      120.62143      18.692127      158.64626     -20.10726       3149489.9    
    250000   349.93862      1.0430975      0.8440248      1.8871223      190.11104      89.905447      184.18315     -0.36291908    -23.621394     -4.8621414      96.889683     -257.12623      180.30149      60.587937     -64.422106     -16.584309      6.6883154      3148061.8    
    255000   349.83972      1.0428027      0.84814461     1.8909473      190.26478      89.902752      184.42232     -0.31673378    -23.41631      -5.0912731     -12.433728      54.120728     -90.569368     -187.14318      47.658075     -36.140356     -16.294123      3154604      
    260000   350.01157      1.043315       0.84368185     1.8869968      190.17729      89.920183      184.31026     -0.29007318    -23.9581       -5.4325737      70.894629      95.72868       19.870571     -210.86134      59.212543      84.714304      62.164627      3151848.5    
    265000   349.59164      1.0420633      0.84747324     1.8895365      190.22774      89.921818      184.42052     -0.32196481    -23.380122     -5.0623513     -185.93682     -237.71208     -63.953993     -53.76187      -61.948352      27.316253     -162.5343       3154628.2    
    270000   349.42276      1.0415599      0.84463104     1.8861909      190.09487      89.917263      184.39181     -0.32683056    -23.247519     -5.3480206     -289.66747     -89.437166     -262.15609     -162.54952     -59.931813      91.820257     -213.75358      3151774.3    
    275000   350.21708      1.0439276      0.84476379     1.8886914      190.16774      89.863688      184.30777     -0.28308401    -24.568777     -4.7079414     -248.29232     -134.55115     -18.165998      7.5547582      172.19823      76.809153     -133.66982      3149667.5    
    280000   350.2235       1.0439467      0.8441883      1.888135       190.17379      89.918366      184.25743     -0.28092603    -23.807057     -5.6116698     -23.274968     -60.406665     -155.17893     -172.12185     -21.563538      193.91611     -79.620189      3150823.4    
    285000   349.83132      1.0427777      0.84828994     1.8910676      190.18537      89.916548      184.29429     -0.35506781    -24.212076     -5.2111005     -594.31209     -71.965348     -174.89354     -103.30497      32.570482     -31.912073     -280.39032      3151581.9    
    290000   348.88727      1.0399637      0.84566116     1.8856248      190.03536      89.910457      184.26262     -0.2129857     -23.796011     -4.7383488      56.763884      6.6162178     -140.55719     -114.42275      91.822761      1.2954478     -25.725697      3148341.8    
    295000   349.68059      1.0423284      0.8469593      1.8892877      190.18004      89.913311      184.45763     -0.20759391    -24.79278      -5.2250064     -55.92519      -14.518638     -39.522732      87.123512     -38.785774     -38.517175     -36.65552       3154173.2    
    300000   350.14366      1.0437087      0.84634775     1.8900565      190.06336      89.90829       184.33082     -0.42486951    -23.860716     -5.5612299     -14.540147      312.00918     -80.940706      222.42985     -181.073        252.81642      72.17611       3149895.1    
    305000   349.42066      1.0415536      0.84646948     1.8880231      190.06457      89.947316      184.28531     -0.32641804    -23.519746     -5.4070896     -35.051727     -196.09031      105.69332     -142.0986      -57.369566     -26.192882     -41.816239      3150504.4    
    310000   350.75327      1.0455259      0.84527523     1.8908011      190.14047      89.935833      184.43366     -0.2831813     -23.648133     -5.9427712     -341.69158     -102.84423     -197.51063     -90.279413     -102.61112     -71.033047     -214.01548      3153897      
    315000   350.11889      1.0436349      0.84479973     1.8884346      190.14645      89.940335      184.35413     -0.34800262    -24.032994     -4.9570188     -184.54163     -30.926602     -15.751303     -192.6967       64.786778     -11.906547     -77.073179      3152794      
    320000   349.87679      1.0429132      0.8464047      1.8893179      190.24038      89.912098      184.41615     -0.37879482    -24.201264     -5.6282568     -81.474627      18.289444     -178.16803      163.60379     -67.172277     -95.826821     -80.451071      3154421.8    
    325000   350.02379      1.0433514      0.84481686     1.8881683      190.15904      89.952409      184.17343     -0.41366027    -23.355734     -6.1734722     -389.56508     -395.70067     -132.11692     -45.272685      60.940742     -106.1727      -305.79423      3150335.1    
    330000   350.72283      1.0454351      0.84484975     1.8902848      190.00585      89.899881      184.27559     -0.33580702    -23.543438     -6.0429173      37.90214      -34.914939     -183.23671     -102.5976       153.89513     -23.359291     -60.083169      3147704      
    335000   350.3109       1.0442072      0.8430172      1.8872244      190.03634      89.900868      184.18767     -0.34278784    -23.738348     -5.6400717     -181.52342      494.38816     -66.869538      120.14051     -80.95764       11.086308      81.9984        3146741.8    
    340000   349.25664      1.0410647      0.84593875     1.8870034      190.11987      89.911125      184.26853     -0.37312251    -23.377219     -5.463286       116.17754      115.8845       3.2025871     -133.64371      12.752598      154.41469      78.421544      3149866.2    
    345000   348.98247      1.0402475      0.84535823     1.8856057      190.18538      89.924358      184.29493     -0.26971788    -23.947833     -5.0349314      43.558527     -172.91991      43.773647     -98.516308     -137.68076     -44.885458     -28.529244      3151866.8    
    350000   351.39245      1.0474311      0.84718761     1.8946187      190.16402      89.921989      184.32317     -0.30285002    -23.696729     -4.413624       98.712367     -66.552736     -224.39788      199.90426      29.500117     -71.649381     -64.079416      3151912.6    
    355000   349.16778      1.0407998      0.84521184     1.8860117      190.12665      89.914805      184.21045     -0.33674852    -23.582958     -5.785894      -250.15586     -111.55828     -37.587297     -184.17014     -29.798914      20.990425     -133.10048      3149114.6    
    360000   348.80451      1.039717       0.84868722     1.8884042      190.18152      89.93819       184.29116     -0.34450615    -24.153325     -5.9636729      28.979543     -31.391727      319.31472     -30.841652      107.94512     -62.31136       105.63418      3152223.1    
    365000   349.51378      1.0418312      0.8446815      1.8865127      190.11677      89.902851      184.31916     -0.38923213    -23.376674     -5.3417238      152.41906     -159.31815     -191.74296     -189.07794      75.802585     -1.8240341     -66.214017      3150390.2    
    370000   350.27083      1.0440878      0.84852331     1.8926111      190.18735      89.994235      184.36531     -0.36712053    -23.792324     -5.7897517     -441.88666      140.78173      13.823441      162.72818      36.38489      -38.525866     -95.760495      3155553.4    
    375000   350.35292      1.0443325      0.84455658     1.8888891      190.06575      89.936826      184.30605     -0.31761471    -23.519147     -5.8901654     -426.36617     -5.6671232      98.646627      99.177186      44.57859       59.987038     -111.12889      3150511.2    
    380000   350.08375      1.0435301      0.84817797     1.8917081      190.05989      89.895581      184.32866     -0.34019506    -23.555959     -4.9499352     -50.688556     -343.93398     -104.84381      159.23293      69.387744     -128.40623     -166.48878      3149355.6    
    385000   348.79875      1.0396998      0.84448125     1.8841811      190.0822       89.944415      184.37956     -0.24326517    -23.000232     -6.0347743     -113.53201     -351.29836     -291.79636     -2.4162523     -36.382003     -156.47502     -252.20891      3152306.3    
    390000   350.42509      1.0445476      0.8444107      1.8889583      190.15412      89.944794      184.31606     -0.42043822    -24.060591     -5.6237567      638.37958     -187.7801       118.03638      21.260678     -108.15902      27.078993      189.54529      3152426.4    
    395000   350.14546      1.0437141      0.84612955     1.8898436      190.16319      89.93265       184.42408     -0.37405649    -23.804638     -5.4062776      269.80702     -144.30307     -148.08336     -247.15836     -126.66127      38.623897     -7.5264703      3153998.3    
    400000   349.50195      1.0417959      0.84779037     1.8895863      190.10766      89.919802      184.50173     -0.3348042     -24.034238     -5.4452261      342.11671      58.747442     -26.685827      91.331758      3.3211989      142.96806      124.72611      3153954.3    
    405000   350.34829      1.0443187      0.84658298     1.8909017      190.19912      89.937934      184.33628     -0.3241667     -24.125098     -4.4545096     -114.72076     -235.81036     -39.467981      45.234259     -24.566968      100.85479     -129.9997       3153277.8    
    410000   349.80601      1.0427023      0.8458576      1.8885599      190.00609      89.915905      184.38496     -0.31007839    -23.659827     -5.8023511     -488.48576      130.48205     -120.12668     -68.255066      71.803831     -34.237022     -159.3768       3150137.7    
    415000   350.16156      1.0437621      0.84683203     1.8905941      190.04933      89.854423      184.23061     -0.29245445    -23.475533     -5.1907736      373.93962      836.88459      231.88023     -171.59265      35.288852     -88.024209      480.90148      3146064.3    
    420000   350.43081      1.0445647      0.84817453     1.8927392      189.99067      89.958946      184.37617     -0.3404198     -23.738654     -5.9808947      281.64824      295.46384     -86.000619      62.358381     -16.201694     -6.5649481      163.70382      3151239.6    
    425000   350.15676      1.0437478      0.84653611     1.8902839      190.18664      89.89394       184.39013     -0.34086343    -23.755742     -5.3516491      169.5585      -62.478259     -18.555723      121.36686      142.56895      158.69802      29.508174      3152449.1    
    430000   350.50631      1.0447897      0.84370565     1.8884954      190.10526      89.917888      184.29616     -0.40425515    -23.716712     -5.2338729     -73.436319     -72.52314       20.230781      46.419775     -77.095568     -34.226116     -41.909559      3150333.4    
    435000   349.65551      1.0422537      0.8471114      1.8893651      190.1272       89.894864      184.35861     -0.35859672    -24.34559      -5.0353868      74.30924      -275.8278       34.340697      94.108944     -152.62557      90.677484     -55.725953      3150957.6    
    440000   350.05014      1.04343        0.84442059     1.8878506      190.15946      89.968827      184.38506     -0.3061737     -23.617492     -5.3152359      454.53181      203.6133      -5.6924821      36.305812     -134.90332     -53.807871      217.48421      3154537.8    
    445000   349.91753      1.0430347      0.84789663     1.8909313      190.03125      89.93184       184.37719     -0.29866616    -24.015418     -5.3972083      415.80552      23.130556     -65.428218     -27.093872      19.763956      84.417331      124.50262      3150980.4    
    450000   350.34186      1.0442995      0.84791841     1.8922179      190.24211      89.917367      184.50034     -0.29520561    -24.057039     -4.6978634     -129.8165       368.32866     -51.036204     -64.58016       12.489702      37.041925      62.491983      3156075.5    
    455000   349.99724      1.0432723      0.84562335     1.8888956      190.13879      89.891115      184.19347     -0.28776337    -23.545397     -4.8561852      162.92737      319.5476      -3.7278418     -25.223068     -14.778139      25.811566      159.58238      3148195.8    
    460000   350.27344      1.0440956      0.84542642     1.889522       190.10065      89.933202      184.24523     -0.34841058    -24.021041     -4.7534141      149.85023     -374.10681     -138.66547     -75.77529      -14.164116      129.49492     -120.97402      3149922.8    
    465000   349.8597       1.0428623      0.84766673     1.890529       190.12694      89.911181      184.34954     -0.35320544    -23.464583     -5.4481417     -83.049234      334.02612     -41.165292     -334.66387      3.2978388     -18.338654      69.937197      3151370.2    
    470000   351.68323      1.0482979      0.84439064     1.8926885      190.18911      89.925544      184.32101     -0.40977753    -24.314002     -5.2037707     -52.509663     -73.851423     -148.51594      21.110404      60.517068      40.102225     -91.625676      3152416.2    
    475000   350.64789      1.0452117      0.84790565     1.8931174      190.19585      89.902961      184.30987     -0.2703648     -23.487986     -4.6223763      112.42462      15.116093      31.106968     -314.77596     -89.313631     -46.15178       52.882561      3151545.8    
    480000   349.49101      1.0417633      0.84592517     1.8876885      190.10454      89.977811      184.31276     -0.38844329    -23.924679     -6.0425667     -532.63039     -224.41656      85.09847      -95.623693     -133.18717     -55.018673     -223.98283      3152704.8    
    485000   350.10489      1.0435932      0.84463689     1.88823        190.1064       89.937389      184.2737      -0.29824994    -24.228695     -5.0877056      24.747323     -308.63737     -54.72285      -175.74879     -109.72244     -163.70042     -112.87097      3150651.5    
    490000   350.1999       1.0438764      0.8465719      1.8904483      190.09603      89.950988      184.42737     -0.35101236    -23.756049     -5.1842601     -237.98725     -278.48607     -27.165417     -96.146098     -131.48714      109.56499     -181.21292      3153583.7    
    495000   349.52256      1.0418574      0.84883823     1.8906956      190.20546      89.898958      184.35792     -0.36712659    -24.347696     -4.697669       158.60212      375.12527      16.57899       218.40591     -67.000603     -10.946852      183.43546      3152386.4    
    500000   350.31854      1.04423        0.8443014      1.8885314      190.13268      89.889459      184.18477     -0.27630563    -25.041953     -4.1504739     -195.48135      165.19057      216.71736      16.072262     -18.551618     -9.5489814      62.142192      3147887.9    
    505000   349.79522      1.0426701      0.84936952     1.8920396      190.13687      89.906076      184.4974      -0.35870287    -24.293769     -5.1099411     -249.9781      -27.151855     -159.24799     -14.972571      197.66545      60.313856     -145.45931      3153883.5    
    510000   349.17922      1.0408339      0.84732068     1.8881546      190.04998      89.917961      184.36978     -0.35602008    -23.234374     -5.22686        7.661144      -199.90241     -56.534046      191.6753       62.009428     -84.407345     -82.925104      3150678.1    
    515000   349.58206      1.0420347      0.84613269     1.8881674      190.19738      89.91138       184.27031     -0.42132262    -23.381889     -6.0172436      201.83125      17.607861     -130.49309     -109.56549      36.831748      10.894282      29.648674      3151189.7    
    520000   350.86831      1.0458688      0.84714287     1.8930116      190.27174      89.905686      184.41385     -0.37927526    -23.774924     -5.500939      -58.485701      237.84432      168.39731      229.83333      57.980183     -20.027476      115.91864      3154677.6    
    525000   349.80652      1.0427038      0.84601131     1.8887151      190.08985      89.947898      184.27663     -0.33651826    -23.721421     -5.7497062      272.65761      37.362084      145.33199     -238.95705     -20.47023       66.932031      151.78389      3150795.5    
    530000   350.38211      1.0444195      0.84521441     1.8896339      190.09452      89.895416      184.29555     -0.32826998    -24.197922     -4.8158898      465.17913     -129.14588     -26.54924       104.87904      55.692507      146.69863      103.16134      3149357.6    
    535000   349.71926      1.0424437      0.84655838     1.8890021      190.20457      89.953553      184.34918     -0.33904444    -24.113627     -4.9453438      46.031883     -310.61521      237.88059      260.61223      97.6397       -182.41668     -8.9009126      3154136.5    
    540000   350.04286      1.0434082      0.84467731     1.8880855      190.16087      89.856576      184.31603     -0.24026198    -23.694344     -5.1392244      141.7198       245.90741      11.989581     -132.32458      7.2062456     -53.529754      133.2056       3149445.6    
    545000   350.09307      1.0435579      0.84703117     1.8905891      190.16259      89.904693      184.29433     -0.27371879    -23.130218     -5.6680044      120.36231      354.70009      48.794303      4.9059954     -130.39362     -112.05099      174.6189       3150789.7    
    550000   350.8002       1.0456657      0.84702299     1.8926887      190.06411      89.924145      184.41578     -0.33110822    -24.021379     -5.7259484     -90.27182       253.74267      330.61138      62.262434      23.8968        128.68388      164.69408      3151915.1    
    555000   349.59866      1.0420842      0.84683251     1.8889167      190.22146      89.981104      184.38706     -0.37958742    -24.117238     -5.2527444      144.55714      367.32589      73.519202      194.64001      22.135753     -9.5632745      195.13408      3156031      
    560000   350.09003      1.0435489      0.84599773     1.8895466      190.03329      89.900228      184.33483     -0.39244924    -23.580498     -5.7927861      94.967288      147.01215     -194.20232     -136.56921     -39.549172     -75.258813      15.925706      3149183      
    565000   350.07681      1.0435094      0.84662452     1.890134       190.11638      89.952166      184.31413     -0.3073213     -23.82545      -5.6130443      165.64289      100.27499     -64.469468     -85.124808     -53.075217      36.96285       67.149469      3152026      
    570000   349.46482      1.0416852      0.8475741      1.8892593      190.11017      89.931928      184.37377     -0.32315603    -23.716969     -5.2598572     -267.11604     -122.13702     -178.86998      211.90756      30.094697      54.264972     -189.37435      3152233.4    
    575000   350.98971      1.0462306      0.84583192     1.8920626      190.07164      89.935939      184.30555     -0.31484345    -23.814142     -4.7274698      252.48763     -427.0905       221.68538     -94.019915     -19.055424     -153.45087      15.694172      3150569.2    
    580000   350.39917      1.0444703      0.8430365      1.8875068      190.08254      89.939394      184.39591     -0.39351599    -23.855356     -5.2031328     -319.6889      -39.41894      -67.936111      123.89204     -17.684049      116.21662     -142.34798      3152415.6    
    585000   349.37884      1.0414289      0.84633192     1.8877609      190.02549      89.885179      184.25914     -0.39054116    -23.698308     -5.2805832     -266.91404     -184.52317      130.22727     -98.192606      102.87457     -1.5482908     -107.06998      3147233.6    
    590000   349.97816      1.0432154      0.84535669     1.8885721      190.06657      89.896289      184.33073     -0.26230684    -23.313312     -4.5909501      131.45599      248.75139     -120.25516     -100.47385      34.314591      12.442036      86.650742      3149526.2    
    595000   349.72693      1.0424665      0.84734034     1.8898069      190.08963      89.917055      184.39937     -0.43982883    -24.769445     -5.0334485     -166.2509      -368.96531     -58.710812      1.2905127      98.798211     -15.99965      -197.97567      3151809.4    
    600000   349.87663      1.0429128      0.84360176     1.8865145      190.0825       89.939237      184.19538     -0.32797912    -23.015657     -6.3865275     -102.94662     -209.7801       179.95895     -61.254904      54.693111     -26.929579     -44.255923      3148981.1    
    605000   349.69803      1.0423804      0.84501425     1.8873946      190.07113      89.896547      184.20719     -0.37601402    -22.884225     -4.8310469     -41.876716      262.95294      169.33663      23.31483      -147.73134     -6.1119954      130.13762      3147500      
    610000   350.29377      1.0441562      0.84599069     1.8901469      190.07089      89.906175      184.29819     -0.35694281    -23.193536     -5.6576179     -102.54046      291.46464     -135.95699      122.90852      19.150087      0.090966085    17.65573       3149388.2    
    615000   350.08556      1.0435355      0.84695034     1.8904859      190.16398      89.931021      184.36459     -0.29148658    -24.07743      -5.138238       152.72433      23.691811     -43.907025     -36.762998      18.128215      91.416574      44.169705      3152936.9    
    620000   350.86795      1.0458677      0.84645676     1.8923244      190.12119      89.927411      184.19006     -0.31391101    -23.795344     -5.3410074      207.7122      -144.22104      126.5818       19.855916      292.56282      26.154111      63.357653      3149117.1    
    625000   350.06388      1.0434709      0.84682878     1.8902997      190.06785      89.960258      184.32422     -0.28323667    -23.573874     -5.0714347     -554.90231     -61.757953      33.433805     -38.951381     -80.041828      27.94483      -194.40882      3151677.5    
    630000   350.14681      1.0437181      0.84649734     1.8902154      190.21977      89.903603      184.23768     -0.28482234    -24.502973     -4.926502      -188.08945     -450.73677      163.80787     -338.65311     -65.02248      -89.035452     -158.33945      3150730.2    
    635000   349.56101      1.0419719      0.8465475      1.8885194      190.26736      89.960954      184.17507     -0.37999086    -24.454284     -5.6936421     -94.476591      65.141712      170.33101     -235.52955     -54.215535      64.727982      46.998711      3152457.1    
    640000   350.47016      1.0446819      0.84773429     1.8924162      190.17149      89.940791      184.20385     -0.45063193    -24.704488     -4.800712       262.91671      193.81807      143.08544      267.11851      19.70328      -2.2500185      199.94007      3150654.7    
    645000   349.35333      1.0413529      0.84944596     1.8907988      190.08626      89.88947       184.35261     -0.25926677    -24.119586     -5.3019056      106.29245      205.86131     -233.67569     -151.34226     -17.157597     -36.127505      26.159357      3149987.5    
    650000   349.48108      1.0417337      0.84819078     1.8899245      190.11564      89.942612      184.35189     -0.42274835    -22.868011     -5.6627021      111.68572      43.37164       307.76507      162.99958     -154.38968     -268.2596       154.27414      3152324.7    
    655000   350.29748      1.0441672      0.84536686     1.8895341      190.16871      89.926772      184.26068     -0.32809484    -23.965656     -5.3761753     -370.44317     -274.79108     -16.999049     -45.191488      78.134672     -48.082196     -220.74443      3151089.4    
    660000   350.79881      1.0456616      0.84682941     1.892491       190.15517      89.918945      184.3573      -0.31439766    -24.151685     -5.2916132     -161.57604      1.51785       -195.15853     -3.1310842     -108.57142      116.25287     -118.40557      3152243      
    665000   349.99612      1.0432689      0.84326802     1.8865369      190.06287      89.905421      184.31801     -0.31670083    -23.811049     -5.8966831      337.26584      3.6586408     -119.70114     -19.216689     -77.792803      12.671901      73.741112      3149567.5    
    670000   350.47292      1.0446902      0.84697273     1.8916629      190.23129      89.909206      184.26752     -0.3407119     -23.573367     -5.658745       275.33516      69.188209      77.504175     -155.80958     -164.6811      -75.920144      140.67585      3151627.7    
    675000   349.53037      1.0418806      0.84603224     1.8879129      190.13517      89.912906      184.30869     -0.36421684    -23.867159     -5.0165611      47.444093      69.443117      73.040062     -18.175633      19.277472      0.88851822     63.30909       3150868.7    
    680000   350.18855      1.0438425      0.84666995     1.8905125      190.20754      89.951591      184.45017     -0.25635865    -24.457349     -4.9887246     -266.87804     -510.91077     -95.828001      75.798995      117.94449      54.538235     -291.2056       3155844.7    
    685000   350.47499      1.0446964      0.84341926     1.8881156      190.13126      89.924719      184.2648      -0.33634205    -23.960632     -5.3614551      196.61471     -175.79211      124.2117       230.52583     -97.783263      8.2263341      48.344765      3150467.5    
    690000   349.87399      1.0429049      0.84572868     1.8886336      190.10071      89.904972      184.34202     -0.38426151    -24.259396     -5.2690947     -253.78458      64.836341     -14.159209     -286.45731      94.107138      113.53917     -67.702481      3150589.2    
    695000   349.27766      1.0411273      0.84684849     1.8879758      190.11399      89.937856      184.3009      -0.35731638    -23.770419     -5.7115584     -142.60657      68.055857      231.37076     -182.04569     -39.332532      97.704418      52.273349      3151258.7    
    700000   349.71078      1.0424184      0.84532212     1.8877405      190.10852      89.890572      184.29116     -0.34825284    -23.646138     -5.1215507     -136.56999      413.55917     -74.681805     -197.70648      63.151265      119.78729      67.435793      3149344.9    
    705000   348.97625      1.0402289      0.8456585      1.8858874      190.06755      89.871242      184.40262     -0.27427829    -24.140917     -5.2469148      307.42593      336.50487      195.5981      -149.24569      4.0716704     -185.68988      279.84297      3149893      
    710000   350.30716      1.0441961      0.84657834     1.8907744      190.08278      89.926896      184.35615     -0.358629      -23.635911     -5.6178346      614.70013      162.93653      113.4023       45.826197     -119.33364      60.89719       297.01299      3151301.9    
    715000   350.09744      1.0435709      0.84748124     1.8910522      190.15863      89.931995      184.25676     -0.38086223    -23.78771      -5.6291529     -192.59089     -134.05975      100.84742     -175.33538      40.586409      23.402122     -75.267738      3151038.4    
    720000   350.01256      1.043318       0.84783411     1.8911521      190.22012      89.919453      184.3495      -0.33701677    -23.938124     -5.2588734     -315.98455     -76.181488     -5.156435      -241.56387     -47.722297     -92.158073     -132.44082      3153204.1    
    725000   350.6496       1.0452168      0.84728632     1.8925031      190.16821      89.965191      184.32511     -0.30488671    -23.761665     -5.642737       11.135534      126.51167     -46.974621     -39.533751     -75.94242       189.64784      30.224195      3153529.7    
    730000   349.19678      1.0408862      0.84723755     1.8881238      190.30409      89.901531      184.33231     -0.34938362    -24.151925     -5.1730178      142.58014      26.048308      30.382839     -150.66579     -116.21046     -25.147799      66.337096      3153673.3    
    735000   350.27555      1.0441019      0.84997879     1.8940806      190.05258      89.933668      184.3802      -0.2901193     -23.298437     -5.8678396     -161.58143     -32.597832     -87.368493     -105.3529       77.640102      82.13834      -93.84925       3151449.6    
    740000   350.60766      1.0450918      0.84835101     1.8934428      189.99781      89.944234      184.31132     -0.41765555    -23.849436     -6.2059849      77.291241      212.06017      87.719595      40.685847      84.657515      92.251716      125.69034      3149734.5    
    745000   349.74871      1.0425315      0.84872238     1.8912538      190.07716      89.887446      184.39651     -0.2804369     -23.424807     -5.0003541      223.07447      275.77276     -105.68091     -31.255187      147.03387      133.6705       131.05544      3150515.8    
    750000   349.60475      1.0421023      0.84734783     1.8894502      190.13151      89.915543      184.31965     -0.38563589    -23.627544     -5.6624398     -88.050921      226.8309       239.79212      22.583061      167.61893      79.68529       126.1907       3151087.9    
    755000   350.24609      1.0440141      0.84453319     1.8885472      190.05583      89.948141      184.41752     -0.29153536    -23.801564     -5.4683675      270.17212     -316.24022     -67.27662      -103.63404     -44.892102     -121.18088     -37.781573      3152648.5    
    760000   350.75101      1.0455191      0.84450323     1.8900223      190.10925      89.948194      184.28272     -0.38408773    -24.116834     -5.4103159      777.39617     -70.594542      87.660225      179.53468      181.26107      84.805795      264.82062      3151231.6    
    765000   349.75101      1.0425383      0.8445441      1.8870824      190.01077      89.955464      184.33697     -0.26966318    -24.057025     -5.1809344      303.85265     -268.88888      54.434699      107.86742     -9.7088209     -117.88703      29.79949       3150781.1    
    770000   349.37806      1.0414266      0.8453367      1.8867633      190.06621      89.960259      184.36111     -0.33747721    -23.914607     -5.3044093      75.284488      149.76802     -23.914962      145.18208      197.6074       39.338838      67.045848      3152281.1    
    775000   350.43909      1.0445893      0.84571389     1.8903032      190.1746       89.896866      184.2369      -0.3649204     -23.731674     -5.68937       -397.71917     -214.2421       55.327128      8.2352092      175.44719     -246.90112     -185.54471      3149732.6    
    780000   350.09125      1.0435525      0.84593039     1.8894829      190.11269      89.891277      184.34121     -0.38008787    -23.699197     -5.4110566      357.79135      410.2519       182.86497      131.28061     -5.8158022     -174.71909      316.96941      3150294.1    
    785000   350.1339       1.0436796      0.84766414     1.8913438      190.2446       89.977732      184.46563     -0.37997225    -23.830743     -5.3868836     -272.91368     -247.37174     -43.654802     -211.37286      0.72507339     57.665189     -187.98007      3157641.6    
    790000   349.918        1.0430361      0.84521252     1.8882486      190.14989      89.955389      184.28725     -0.28250641    -23.622675     -6.1552634      125.34491     -36.977039     -50.150145     -11.668452      38.213303      110.01912      12.739244      3152234.8    
    795000   349.90324      1.0429921      0.84812808     1.8911201      190.28616      89.93457       184.3608      -0.31113033    -24.283447     -5.2320017      12.241044      107.32125      252.77702     -67.680829      50.925955      183.13312      124.1131       3155022.5    
    800000   350.25077      1.044028       0.8488605      1.8928885      190.22926      89.901199      184.26376     -0.32073418    -23.805565     -4.7356808      70.125028      87.373641      15.742024      47.151947     -19.235517     -27.363081      57.746898      3151249.1    
    805000   349.11937      1.0406555      0.84738734     1.8880429      190.05796      89.9314        184.32935     -0.39751636    -23.834839     -6.2748146      150.10611      345.04469      121.74748      166.07878      134.39691     -44.658652      205.63276      3150590.1    
    810000   350.69468      1.0453512      0.84675098     1.8921022      190.12137      89.882731      184.13913     -0.3666734     -23.96587      -5.1679194     -313.01171     -148.40929      32.661519     -117.44224      0.017884445   -140.68595     -142.91983      3146685      
    815000   349.789        1.0426516      0.84477926     1.8874308      190.15569      89.948735      184.25046     -0.27600657    -22.591451     -6.5298629     -99.196662     -187.65393      223.57447      37.85678       111.1263       69.65545      -21.092041      3151468.6    
    820000   349.37952      1.041431       0.84434888     1.8857799      190.12876      89.910277      184.19139     -0.35113556    -23.80626      -5.2868096      126.6384       35.791006      85.940066     -115.50973      44.343316     -65.794631      82.789824      3148665      
    825000   350.02068      1.0433422      0.8459237      1.8892659      190.07226      89.912374      184.18652     -0.34875043    -23.077919     -5.7100647      332.6759       92.646869      47.645562     -302.12881      45.953079      65.523553      157.65611      3147719.8    
    830000   350.00596      1.0432983      0.84786551     1.8911638      190.13682      89.91843       184.38605     -0.34868144    -24.081177     -5.3269658     -59.348813      238.13316      162.12716     -142.93155      35.498642      264.00069      113.63717      3152412.2    
    835000   349.82881      1.0427702      0.84593459     1.8887048      190.09413      89.860293      184.25891     -0.34747506    -23.498786     -5.1264677     -691.40268     -127.85955      185.13781     -8.2225762      97.56809       30.361352     -211.37481      3147495      
    840000   350.86082      1.0458464      0.84580333     1.8916498      190.0262       89.92119       184.24472     -0.3506541     -23.797528     -4.5014006      28.54836       171.24848      63.441146     -66.383043     -125.08217      39.578831      87.745997      3148260      
    845000   349.88069      1.0429248      0.84581408     1.8887389      190.27699      89.874968      184.27946     -0.27303297    -24.23983      -4.9346629     -168.44111      244.5195      -42.776092      63.129616     -10.968816     -100.11018      11.100765      3151388.5    
    850000   351.02055      1.0463225      0.84667431     1.8929969      190.20766      89.931361      184.30074     -0.34682198    -24.675623     -5.237687       345.41608     -56.723141     -159.53586      103.33539     -72.362286      94.787555      43.05236       3152580.8    
    855000   349.58521      1.0420441      0.84499094     1.887035       190.22691      89.891708      184.27848     -0.22119385    -24.274179     -4.7999428     -24.894448     -182.55064      206.53425     -85.114574     -96.284895      79.334771     -0.30361022     3151129.3    
    860000   350.42867      1.0445583      0.84641198     1.8909703      190.13439      89.951357      184.20275     -0.33067571    -23.650038     -6.0453353     -281.14529      73.434598     -16.193309     -55.716628     -2.4645002     -120.00051     -74.634668      3150391.3    
    865000   350.16924      1.043785       0.84770766     1.8914926      190.10055      89.947393      184.2896      -0.41292893    -23.804714     -5.3637475      451.68099     -165.29978     -0.37310065    -138.74352     -1.5026911      119.16469      95.336036      3151176.8    
    870000   350.15593      1.0437453      0.84418496     1.8879303      190.09282      89.948147      184.25038     -0.35732803    -23.467895     -5.192844       29.804457      248.69603      266.50149     -50.141016      23.383377      30.509068      181.66732      3150404.6    
    875000   349.062        1.0404845      0.8475048      1.8879893      190.0676       89.951706      184.3086      -0.31453753    -23.344775     -5.5294228     -68.870401      35.197923     -201.08785      102.29259      29.278111     -33.22122      -78.253443      3151106.7    
    880000   349.94269      1.0431097      0.84623499     1.8893447      190.10803      89.892576      184.21154     -0.37254829    -23.930953     -4.9964127      313.46816     -421.32738     -8.0634664     -33.439296     -88.426511      22.5236       -38.640895      3148046.3    
    885000   349.72328      1.0424556      0.8485108      1.8909664      190.12383      89.885638      184.27014     -0.39656599    -24.042429     -5.381635      -343.71422     -114.42748     -39.828729      61.619984     -86.369372     -86.726642     -165.99014      3149066.4    
    890000   349.70668      1.0424062      0.84827607     1.8906823      190.11052      89.920744      184.17154     -0.28401258    -23.346353     -5.3291251      196.76899      250.31301      43.47058       149.98362      133.56891      82.917289      163.51753      3148390.3    
    895000   350.24766      1.0440187      0.84959601     1.8936147      190.14185      89.949568      184.37731     -0.34785233    -24.467032     -5.7309437      98.362757      54.685025      31.073338      220.85508      86.056609      205.37965      61.373707      3153437.8    
    900000   350.69635      1.0453562      0.84527972     1.8906359      190.14512      89.95922       184.16751     -0.31830516    -23.078883     -5.5894292      93.443914     -224.4963      -120.00411      52.81319      -137.39847      166.00779     -83.685501      3150241.7    
    905000   350.34877      1.0443201      0.84610949     1.8904296      190.11892      89.912887      184.27176     -0.33414942    -24.070939     -5.3305345      142.58881      128.94962      63.51145      -103.27607      2.9543646     -12.397372      111.68329      3149967.5    
    910000   349.91405      1.0430243      0.84667728     1.8897016      190.14865      89.9332        184.43601     -0.31484881    -24.621486     -4.7208635     -108.2195      -174.47281     -168.93338     -113.95487      12.634257      20.377271     -150.5419       3153980.5    
    915000   349.69097      1.0423593      0.84733075     1.8896901      190.2572       89.895936      184.27004     -0.37301179    -24.15659      -5.1325835     -256.89075     -319.29514      83.783075      19.758307     -19.042085     -17.262115     -164.13427      3151634.8    
    920000   350.11498      1.0436232      0.84487024     1.8884935      190.21924      89.874134      184.1295      -0.29555723    -24.206011     -5.061609       87.896942      67.222625     -151.03003     -204.27567     -11.104577      8.9546485      1.3631798      3147839.2    
    925000   349.51762      1.0418426      0.84764212     1.8894847      190.14148      89.912503      184.32499     -0.30724188    -23.459558     -5.1009945     -382.78418     -7.0358496     -126.43547     -243.26706     -89.203913      12.887137     -172.08517      3151237.7    
    930000   348.85215      1.039859       0.84589145     1.8857504      190.06187      89.970396      184.48305     -0.30225638    -24.213815     -4.9980381     -3.4114468     -381.60322     -116.01575     -181.02106     -92.037673      169.81946     -167.01014      3154649.5    
    935000   350.63106      1.0451616      0.84664984     1.8918114      190.08099      89.936509      184.39134     -0.24898999    -23.487595     -4.248913       133.88911     -123.98451     -96.144751     -122.37615      27.177394     -132.37911     -28.746719      3152210.7    
    940000   349.86305      1.0428723      0.84860424     1.8914765      190.22192      89.923662      184.52408     -0.34967158    -24.202851     -5.186192      -123.41745     -505.08328     -182.00128     -176.0522      -7.17101       -51.780184     -270.16734      3156367.7    
    945000   349.98642      1.04324        0.84450016     1.8877402      190.21561      89.951807      184.1784      -0.41791147    -23.631362     -4.878544       9.847385       141.30708     -35.195595      165.32555      112.767       -199.71398      38.652957      3151336.1    
    950000   349.48177      1.0417358      0.84552313     1.8872589      190.19578      89.907295      184.27499     -0.32268236    -24.061817     -4.5906919     -188.88433     -352.95751      216.61932      242.9515      -18.635617     -34.850851     -108.4075       3151100.1    
    955000   349.45499      1.0416559      0.84466177     1.8863177      190.21802      89.851073      184.1864      -0.32568196    -23.729568     -5.3365375     -299.83943      144.11318      125.71751     -146.3486      -27.674205      161.18087     -10.002913      3147983.7    
    960000   350.85679      1.0458344      0.84561405     1.8914485      190.10055      89.929352      184.27706     -0.33620491    -24.043363     -6.0688592      275.74189     -211.96923     -21.604892     -134.28971      19.027429     -41.56326       14.055923      3150330.4    
    965000   350.10454      1.0435921      0.84699787     1.89059        190.12065      89.94825       184.47584     -0.24414677    -23.775027     -5.8088626      74.095024     -20.775346     -181.58005      148.62898     -1.4102812     -127.23233     -42.753456      3154725      
    970000   350.00959      1.0433091      0.84782664     1.8911357      190.1446       89.901779      184.33661     -0.30114921    -23.424994     -5.4098053     -216.53238      87.402572     -164.88903     -50.381952     -111.32576     -91.410962     -98.006279      3151112.3    
    975000   350.1969       1.0438674      0.84341641     1.8872838      190.00095      89.879885      184.23561     -0.26559818    -23.230846     -5.8994371     -39.679517      116.4466      -15.973528      58.485609      74.891187      91.116119      20.264517      3146240.1    
    980000   349.80505      1.0426994      0.84530915     1.8880085      190.07406      89.917734      184.3232      -0.3541657     -23.775786     -4.9957253     -281.80617      168.99522     -19.734713     -277.94048      134.14094      3.3140086     -44.181889      3150273.1    
    985000   349.39715      1.0414835      0.84978551     1.891269       190.18496      89.91492       184.42415     -0.27880376    -24.583341     -4.3438842      228.045       -166.65111      73.181096     -172.48541      85.652096     -132.72134      44.85833       3153738.7    
    990000   350.45583      1.0446392      0.84748317     1.8921224      190.0947       89.896541      184.342       -0.34137157    -23.972134     -5.1532793      313.70666      399.66035      54.109783     -79.826526      23.704262     -5.5749682      255.8256       3150193.8    
    995000   349.89264      1.0429605      0.84791471     1.8908752      190.05937      89.973618      184.29149     -0.38662844    -24.534717     -4.9158485      506.47602     -362.0783      -166.63831     -46.076859     -129.90643      95.635722     -7.4135307      3151445.1    
   1000000   350.20024      1.0438774      0.8437608      1.8876382      190.27012      89.894669      184.27023     -0.22016732    -24.033173     -5.260861       130.3918      -93.487717     -44.942781     -183.5868       31.783112     -29.997769     -2.6795652      3151807.6    
   1000066   349.42242      1.0415589      0.84436846     1.8859273      190.15837      89.891973      184.25794     -0.29009641    -23.85279      -5.182091       287.24291      121.05192      3.1111298      30.076435     -86.107094     -94.826499      137.13532      3149652.1    
Loop time of 6672.36 on 1536 procs for 1000000 steps with 345600 atoms

Performance: 12.949 ns/day, 1.853 hours/ns, 149.872 timesteps/s, 51.796 Matom-step/s
99.5% CPU use with 1536 MPI tasks x no OpenMP threads

MPI task timing breakdown:
Section |  min time  |  avg time  |  max time  |%varavg| %total
---------------------------------------------------------------
Pair    | 921.86     | 965.19     | 1308.5     |  83.3 | 14.47
Bond    | 38.018     | 43.665     | 50.699     |  64.6 |  0.65
Kspace  | 2909.8     | 3251.7     | 3399.6     |  66.5 | 48.73
Neigh   | 904.5      | 950.75     | 997.98     |  45.2 | 14.25
Comm    | 477.47     | 681.46     | 826.33     | 191.6 | 10.21
Output  | 0.26087    | 0.86565    | 1.4997     |  38.0 |  0.01
Modify  | 670.51     | 741.85     | 806.31     |  95.8 | 11.12
Other   |            | 36.85      |            |       |  0.55

Nlocal:            225 ave         247 max         208 min
Histogram: 30 95 242 350 302 203 162 103 42 7
Nghost:        3759.03 ave        3845 max        3674 min
Histogram: 15 34 102 270 368 343 245 128 24 7
Neighs:          52069 ave       57686 max       47579 min
Histogram: 26 86 219 335 324 232 170 97 41 6

Total # of neighbors = 79977999
Ave neighs/atom = 231.41782
Ave special neighs/atom = 9.4
Neighbor list builds = 160857
Dangerous builds = 3573
unfix           1
undump          1
unfix		langevin

#======================== HEATING
reset_timestep  0
dump            1 all custom 10000 heating.*.dump element id mol type x y z
dump_modify     1 element ${ele_string}
dump_modify     1 element C C H
compute         cc1 all chunk/atom molecule
compute         myChunk all com/chunk cc1

fix             1 all nph tri ${patm} ${patm} ${pdamp} fixedpoint ${xcm} ${ycm} ${zcm} flip no
fix             1 all nph tri 1 ${patm} ${pdamp} fixedpoint ${xcm} ${ycm} ${zcm} flip no
fix             1 all nph tri 1 1 ${pdamp} fixedpoint ${xcm} ${ycm} ${zcm} flip no
fix             1 all nph tri 1 1 100 fixedpoint ${xcm} ${ycm} ${zcm} flip no
fix             1 all nph tri 1 1 100 fixedpoint 83.6094995334816 ${ycm} ${zcm} flip no
fix             1 all nph tri 1 1 100 fixedpoint 83.6094995334816 41.0812545463268 ${zcm} flip no
fix             1 all nph tri 1 1 100 fixedpoint 83.6094995334816 41.0812545463268 86.272229942685 flip no
fix             2 all ave/time 2 100 ${thermo} v_temp v_sxx v_syy v_szz v_sxz v_syz v_sxy v_pe file output_heating.dat
fix             2 all ave/time 2 100 5000 v_temp v_sxx v_syy v_szz v_sxz v_syz v_sxy v_pe file output_heating.dat
fix             3 all ave/time 2 100 ${thermo} c_myChunk[*] file center_heating.dat mode vector
fix             3 all ave/time 2 100 5000 c_myChunk[*] file center_heating.dat mode vector
fix             4 all print ${thermo} "${xhi} ${xlo} ${yhi} ${ylo} ${zhi} ${zlo} ${xy} ${xz} ${yz}" screen no file box_parameters_heating.dat
fix             4 all print 5000 "${xhi} ${xlo} ${yhi} ${ylo} ${zhi} ${zlo} ${xy} ${xz} ${yz}" screen no file box_parameters_heating.dat

fix             langevin all langevin ${temperature} ${endtemperature} ${tdamp} 32258678 zero yes
fix             langevin all langevin 350 ${endtemperature} ${tdamp} 32258678 zero yes
fix             langevin all langevin 350 390 ${tdamp} 32258678 zero yes
fix             langevin all langevin 350 390 100 32258678 zero yes

run             ${trelax2}
run             10000000
PPPM initialization ...
  using 12-bit tables for long-range coulomb (../kspace.cpp:342)
  G vector (1/distance) = 0.29202899
  grid = 32 32 60
  stencil order = 6
  estimated absolute RMS force accuracy = 3.3573499
  estimated relative force accuracy = 0.01011056
  using double precision KISS FFT
  3d grid and FFT values/proc = 1188 64
Generated 3 of 3 mixed pair_coeff terms from arithmetic mixing rule
Per MPI rank memory allocation (min/avg/max) = 13.99 | 13.99 | 14 Mbytes
   Step          Temp          KinEng         PotEng         TotEng           Lx             Ly             Lz             Xy             Xz             Yz            Pxx            Pyy            Pzz            Pxy            Pxz            Pyz           Press          Volume    
         0   349.42242      1.0415589      0.84436846     1.8859273      190.15837      89.891973      184.25794     -0.29009641    -23.85279      -5.182091       287.24291      121.05192      3.1111298      30.076435     -86.107094     -94.826499      137.13532      3149652.1    
      5000   349.37268      1.0414106      0.84765686     1.8890674      190.07892      89.936364      184.38906     -0.2136839     -23.088882     -5.6227204     -118.67954     -635.17495     -96.095913     -63.465619     -68.540568      130.16836     -283.3168       3152132.2    
     10000   349.58001      1.0420286      0.8477627      1.8897913      190.15768      89.885676      184.24381     -0.25742998    -24.101035     -5.1964588     -194.45671     -58.630122      41.544442     -7.127255      -74.991514     -118.19294     -70.51413       3149178.4    
     15000   350.26864      1.0440813      0.84818483     1.8922661      190.13577      89.91756       184.36726     -0.34437318    -24.088522     -5.2116603     -259.18808     -48.733224      53.54116       53.723402     -95.890117     -13.984952     -84.79338       3152043      
     20000   350.23093      1.0439689      0.84357433     1.8875432      189.9511       89.913663      184.25819     -0.4062024     -22.497131     -6.027252      -196.08295     -108.92976      48.910139      168.85205      106.25294     -164.0666      -85.367524      3146982.3    
     25000   350.07553      1.0435056      0.84797797     1.8914836      190.08472      89.896656      184.31897     -0.34093374    -23.370384     -6.4574666     -252.64664      301.48272      66.860073     -201.129       -95.987866      52.728785      38.565382      3149639      
     30000   348.98805      1.0402641      0.84732985     1.8875939      190.0741       89.934736      184.36712     -0.35903484    -23.849165     -5.2435705      44.756433      0.72731932    -14.552582     -148.95048      11.054611      56.124067      10.31039       3151620.1    
     35000   350.30055      1.0441764      0.84784779     1.8920242      190.1473       89.94709       184.20551     -0.41568951    -23.484305     -5.6093835     -250.49161      9.8993284      69.612809      91.833049      172.80716     -259.82181     -56.993158      3150502.9    
     40000   350.29469      1.0441589      0.84514621     1.8893051      190.12216      89.987131      184.29167     -0.34453249    -23.110883     -5.2687784     -45.650729     -325.48154     -65.828531     -243.59975     -79.903368     -2.8440658     -145.6536       3152962.8    
     45000   350.33901      1.044291       0.84682008     1.8911111      190.09911      89.886435      184.32567     -0.35526695    -23.672246     -4.9060021     -134.07332     -145.99059     -110.0785       3.818254       104.9015       61.969634     -130.04747      3149633.7    
     50000   350.47443      1.0446947      0.84693581     1.8916305      190.19759      89.922263      184.36761     -0.38926631    -24.328824     -5.985165      -78.577129      113.9582       76.192608      124.78678     -6.8838307      82.546331      37.191226      3153238.7    
     55000   349.26665      1.0410945      0.84389629     1.8849908      190.10937      89.902167      184.2772      -0.37988375    -23.481794     -5.2112647     -244.80776     -384.42342     -219.24903      95.765915      30.913229      73.819537     -282.82674      3149526.7    
     60000   350.54382      1.0449015      0.84423955     1.8891411      190.15327      89.934655      184.36493     -0.37031234    -23.343177     -4.5215913     -20.842008     -113.52138     -328.99491     -145.52442     -47.23516      -39.902567     -154.45277      3152892.7    
     65000   349.84767      1.0428264      0.84516888     1.8879953      190.033        89.951181      184.34666     -0.34734215    -22.901213     -6.0208823      27.50398       251.54974     -5.353862      -80.377659      50.554953     -44.435292      91.233284      3151165.2    
     70000   350.70581      1.0453844      0.84605246     1.8914368      190.13867      89.912541      184.22639     -0.21114695    -23.084832     -5.4567898     -365.09354      123.72972      251.76749     -242.83785     -148.85549     -53.385364      3.4678894      3149507      
     75000   350.97002      1.0461719      0.84913173     1.8953037      189.99501      89.936223      184.25819     -0.36470002    -23.369505     -5.7886525     -105.29698     -6.7199272     -140.6137       244.55324      2.6739288     -14.223277     -84.210203      3148499.7    
     80000   350.47399      1.0446934      0.84556148     1.8902549      190.19027      89.926367      184.32201     -0.2293556     -24.68084      -5.6307384      340.50217     -347.78174      203.79218     -306.15811     -149.34305      88.790062      65.504203      3152481.4    
     85000   350.79916      1.0456626      0.8495023      1.8951649      190.11435      89.936688      184.2756      -0.43128523    -23.684544     -5.4987262      137.78054     -227.90422      228.8974       179.72547      78.593526      54.087253      46.257907      3150791.1    
     90000   349.71979      1.0424453      0.84672578     1.889171       190.15858      89.963282      184.34956     -0.3241534     -23.197682     -4.7557317      562.38834     -122.93456      30.645604     -194.07258     -30.034203     -96.882687      156.69979      3153721.5    
     95000   350.60885      1.0450954      0.84618265     1.891278       190.11762      89.929864      184.27844     -0.4395862     -23.936545     -5.0999246     -214.71447     -90.253554      193.95068     -16.382924      114.73204      22.981457     -37.005781      3150654.9    
    100000   350.8847       1.0459176      0.84805494     1.8939726      190.21406      89.916629      184.34041     -0.35345502    -25.395972     -4.2941986     -14.840696      127.86156     -77.343871      2.6491497     -52.945361      150.29237      11.892331      3152849.1    
    105000   350.80326      1.0456749      0.84715219     1.8928271      190.19852      89.937192      184.29357     -0.25890564    -23.854986     -4.9650998      138.65384     -110.07706     -34.087996      68.489663      15.179008      0.49767044    -1.837073       3152511.1    
    110000   349.85334      1.0428433      0.84589464     1.888738       190.07885      89.933683      184.30228     -0.29087403    -23.782064     -5.5087182     -225.86953     -8.3131309     -204.74089      16.098116      216.95412     -34.665221     -146.30785      3150553.7    
[...]
    680000   350.08153      1.0435235      0.84646186     1.8899854      190.03478      90.016334      184.23234     -0.3475239     -73.222201      62.887613     -106.99224      74.141025      142.36458      73.530266     -114.71979     -80.866259      36.504458      3151521.6    
    685000   349.42946      1.0415798      0.84309533     1.8846752      189.90296      89.982369      184.29709     -0.41082436    -73.340823      62.341401      288.31464     -0.62555007     197.865        107.26735      82.050848      107.52284      161.85136      3149253.7    
    690000   349.79425      1.0426672      0.84259481     1.885262       190.11114      89.972759      184.34447     -0.36948275    -72.905746      62.523548     -117.46533      6.7552555     -26.0555       -172.88183      8.4604963     -18.436396     -45.588525      3153179.7    
    695000   350.45419      1.0446344      0.84030934     1.8849437      189.98221      89.966963      184.12392     -0.36120245    -74.034881      62.698197      136.0442       143.89915     -153.47786      53.587154      11.176226      55.329617      42.155162      3147068.6    
    700000   349.28496      1.0411491      0.84406271     1.8852118      189.90003      89.992741      184.14612     -0.32331923    -73.294775      63.142246      116.42397      88.512386     -117.59737      74.233946      76.057052     -35.001842      29.112994      3146988      
    705000   349.65802      1.0422611      0.84391638     1.8861775      190.04185      89.966947      184.22616     -0.27405045    -73.535925      62.718172      360.15299      442.55413      131.20536     -57.035903      31.287215     -23.145494      311.30416      3149804.2    
    710000   349.35194      1.0413488      0.84515125     1.8865         190.02676      90.026019      184.30987     -0.42312649    -73.003186      62.761574      113.79902     -170.34282      67.165579      34.760076     -110.26936     -29.578944      3.540593       3153054      
    715000   350.35146      1.0443281      0.8411314      1.8854595      189.95917      89.964222      184.07244     -0.36864509    -73.146322      63.308985      25.210106     -624.7526      -9.628759       140.40776     -65.835151     -0.98701245    -203.05709      3145711.3    
    720000   350.06033      1.0434603      0.84587983     1.8893402      190.04769      89.979482      184.21066     -0.40113252    -72.75657       62.362105     -401.7156      -130.38493     -316.73973      408.03522     -14.58418      -0.32397643    -282.94675      3150074.8    
    725000   350.18729      1.0438388      0.84503914     1.8888779      190.08588      89.988268      184.22031     -0.41624303    -73.057955      62.194269     -14.544358      42.909093     -12.061102     -257.1832      -47.48204       72.82801       5.4345442      3151180.4    
    730000   348.80954      1.039732       0.84338044     1.8831124      190.02621      89.978567      184.32598     -0.34277201    -73.287119      62.941185     -224.67267      105.76796     -223.88921      104.36053     -98.105936     -99.945973     -114.26464      3151658.3    
    735000   349.80708      1.0427054      0.84484298     1.8875484      190.08274      89.962938      184.22152     -0.36069264    -73.296066      63.483394      78.160658      209.28182     -174.10432     -103.80486     -21.757375      30.532482      37.779385      3150262      
    740000   349.90601      1.0430003      0.84349006     1.8864904      190.02448      89.954192      184.33527     -0.42306256    -73.318837      62.756595     -221.26975     -329.23486      76.326805     -168.28321     -33.083411      93.213062     -158.05927      3150934.7    
    745000   349.65003      1.0422373      0.84529971     1.887537       190.01352      89.997372      184.22417     -0.48827801    -72.953111      62.62349      -46.931068     -83.841668      14.441539      181.99587      20.484294     -22.198344     -38.777065      3150365.5    
    750000   349.56687      1.0419894      0.84319177     1.8851812      190.00328      89.962043      184.26242     -0.38990069    -72.947171      63.158245     -66.586249      455.74161     -415.57325      71.921517      168.71476     -89.959923     -8.8059646      3149612.8    
    755000   350.35032      1.0443247      0.8426045      1.8869292      190.00102      89.910885      184.38592     -0.33131052    -73.739649      62.675918      129.08381      711.26792     -202.21688      39.589985      65.623818      14.660178      212.71162      3149894      
    760000   349.6897       1.0423556      0.84493534     1.8872909      190.0386       89.978176      184.36182     -0.3981679     -73.62532       62.83117       46.508323     -137.88159     -107.19313     -55.222924     -120.08145      39.430407     -66.1888        3152462.9    
    765000   350.03422      1.0433825      0.84184028     1.8852228      190.03567      89.961634      184.1502      -0.32456909    -73.256487      62.430808     -186.92539     -240.86037      1.6521219      111.61174     -48.815587      140.45854     -142.04455      3148217      
    770000   350.36361      1.0443643      0.84381088     1.8881752      190.06991      89.987468      184.2952      -0.32086967    -73.115742      62.313102     -236.16745     -19.708603      133.78013     -6.9733703      4.6777978      170.16273     -40.69864       3152168.5    
    775000   350.17751      1.0438096      0.84341719     1.8872268      190.02643      89.914865      184.34381     -0.33492813    -73.19227       63.025549      102.32657      82.779629     -31.780273     -123.28333      32.750458     -103.21884      51.108643      3149735.3    
    780000   350.68198      1.0453134      0.8444381      1.8897515      190.05589      89.990311      184.3255      -0.32725995    -73.000616      62.218371      55.541128     -236.31858     -59.084376     -102.5056       48.480985      19.58143      -79.953941      3152553.7    
    785000   350.56458      1.0449634      0.84376968     1.8887331      189.97002      89.957984      184.28885     -0.42281714    -73.566564      63.392522      10.026396     -128.48077     -81.016253      43.108591     -96.456691     -36.943097     -66.490207      3149371.2    
    790000   349.6755       1.0423132      0.84585067     1.8881639      190.07016      90.013148      184.34088     -0.35202326    -73.467703      63.233857      388.49355      434.59183     -81.691602     -109.27566      11.05309       14.530474      247.13126      3153853.7    
    795000   349.18573      1.0408533      0.84714463     1.887998       190.02537      89.99789       184.25396     -0.35982735    -73.323596      63.128592      81.672584     -108.04385      121.74456     -244.20243     -32.376334     -2.5770641      31.791099      3151089.6    
    800000   350.44939      1.04462        0.8459032      1.8905232      190.14053      89.981622      184.24121     -0.30324931    -73.658184      62.282517      177.14356      39.372721     -8.2949813     -234.6486       113.62508      73.067714      69.4071        3152211      
    805000   350.43232      1.0445692      0.84549415     1.8900633      189.96334      90.033103      184.30409     -0.30585068    -73.360067      63.227792      43.865314     -164.70492      81.963352      88.756193     -122.22742      0.22479641    -12.958751      3152150.8    
    810000   349.88639      1.0429419      0.84521148     1.8881533      190.08976      89.954761      184.30225     -0.37517404    -72.744359      63.013494     -151.21886     -406.03693     -239.69086      28.542911      27.224969     -12.763296     -265.64888      3151472.4    
    815000   350.51269      1.0448087      0.84510571     1.8899144      190.08094      89.984662      184.14515     -0.32397267    -73.382008      63.083174     -298.94157     -106.75839     -20.046821     -384.62583      167.96552     -27.919455     -141.91559      3149686.6    
    820000   349.32324      1.0412632      0.84598276     1.887246       190.13828      89.926706      184.23733     -0.39049311    -73.388679      62.683876     -354.12574     -46.832911     -233.26616     -9.0438403      28.214113      32.633307     -211.40827      3150183.7    
    825000   349.26039      1.0410759      0.84404289     1.8851188      189.99617      90.04005       184.22705     -0.33781441    -72.996497      63.480038      182.63823      97.987658     -46.708609     -97.098707      40.83979       12.460996      77.972425      3151620.9    
    830000   349.56677      1.0419891      0.84429684     1.886286       190.06979      89.950732      184.2601      -0.36353731    -73.328163      62.284357     -326.11582     -118.51369      75.877605      241.46529      142.24249      19.153265     -122.9173       3150279.6    
    835000   350.61861      1.0451244      0.84416761     1.8892921      189.94403      90.017607      184.16158     -0.41788412    -72.803362      62.587218      166.32828      34.170092      71.510419     -156.61599     -21.835623     -9.059761       90.669598      3148851.2    
    840000   350.39476      1.0444572      0.84482876     1.889286       190.00667      89.989459      184.1159      -0.34822186    -73.513888      63.477988     -217.4068      -60.185453     -147.24553     -79.446419      54.400539     -25.936897     -141.6126       3148123.7    
    845000   349.90812      1.0430066      0.84241039     1.885417       189.97668      89.927983      184.13503     -0.45034694    -73.539428      62.910891      191.9449      -30.475837     -61.905881      212.63218      102.16259      103.68123      33.187728      3145803.4    
    850000   349.42817      1.041576       0.8462923      1.8878683      190.09819      89.977416      184.19925     -0.39604158    -72.543773      62.440027     -15.399697     -108.63561     -82.65479      -248.0847      -162.8772       67.390369     -68.8967        3150644.2    
    855000   349.55501      1.0419541      0.84484465     1.8867987      190.21508      89.969247      184.32921     -0.28741723    -72.960343      61.913488     -386.40731     -204.99551     -35.573141      9.3815897      50.079587      56.017618     -208.99199      3154519.4    
    860000   350.52013      1.0448309      0.84621057     1.8910415      190.04472      90.014578      184.24625     -0.31678095    -73.808759      63.196581      9.1825414     -8.7356251      33.512311      54.726838      91.370849      17.964019      11.319742      3151862.8    
    865000   350.32221      1.044241       0.8439563      1.8881973      190.02422      89.925657      184.34118     -0.36633932    -73.373813      62.074829      79.660432      286.88939      119.37115     -38.163371      43.807688      24.485547      161.97366      3150031.8    
    870000   350.13341      1.0436782      0.84464143     1.8883196      189.94911      89.974517      184.2363      -0.44444032    -73.682367      62.572033      123.44836      116.42858      20.325413      336.0306       102.64168      128.6044       86.734117      3148705.1    
    875000   350.17423      1.0437998      0.84344251     1.8872423      190.06346      90.009604      184.319       -0.38555315    -73.355976      62.307389     -511.78304     -180.01929      132.85081      14.199219      7.813823      -93.009503     -186.31717      3153244      
    880000   349.77783      1.0426182      0.84500482     1.8876231      189.97508      89.951478      184.26536     -0.33261033    -72.937376      61.87456      -368.13757      278.57467     -75.285762      70.661954     -157.75975      66.901696     -54.949553      3148825.8    
    885000   349.48447      1.0417438      0.84242439     1.8841682      189.98388      89.974873      184.26347     -0.38159988    -73.834371      63.139561     -1.5792661      55.476912      23.190359     -49.483686      129.77454     -19.418227      25.696001      3149758.3    
    890000   350.21227      1.0439132      0.84601392     1.8899272      190.18723      89.945193      184.07862     -0.40817599    -73.223345      62.700046     -157.27034      236.35154     -86.486814      171.98615      3.2635073     -62.89704      -2.468536       3148927.5    
    895000   350.15719      1.0437491      0.84600427     1.8897533      190.02316      89.968135      184.28866     -0.33148381    -73.461148      63.022227     -15.883641     -147.08859     -58.269954     -21.372112      32.798062     -88.957465     -73.747396      3150604.4    
    900000   349.98716      1.0432422      0.8430271      1.8862693      189.89687      89.938144      184.16045     -0.43116362    -73.151262      62.929207      380.29098      65.904979      94.466364     -94.986438      18.86049      -28.636395      180.22078      3145271.2    
    905000   349.45972      1.04167        0.84566047     1.8873305      190.11139      89.923565      184.29118     -0.45492387    -73.149158      62.583055     -330.57191      490.43914     -142.37414      179.68457     -57.089766     -39.846267      5.8310303      3150548.8    
    910000   349.95687      1.0431519      0.84464908     1.887801       189.97158      89.966685      184.21855     -0.34871937    -73.619976      62.764946     -381.7561      -126.03225      207.06478      181.14621     -25.52118       182.75604     -100.24119      3148500.1    
    915000   350.99598      1.0462493      0.84305003     1.8892994      190.05348      89.989631      184.18136     -0.36845621    -73.253738      63.185414      147.22445     -66.032303      35.70835      -155.26563     -32.152022      39.985941      38.966831      3150024.8    
    920000   350.62665      1.0451484      0.84181839     1.8869668      190.15415      89.997428      184.10823     -0.38252842    -73.242905      62.701041     -285.90768     -295.92107      65.307588      125.10699      61.523839     -66.034373     -172.17372      3150714.9    
    925000   350.2293       1.043964       0.84242483     1.8863888      190.07564      89.912643      184.35687     -0.42684014    -73.200586      62.493878     -75.635467     -355.333       -50.292661     -89.062866     -58.955658      17.267894     -160.42037      3150696.3    
    930000   349.83729      1.0427955      0.84390374     1.8866992      189.78555      90.027991      184.27788     -0.35748002    -73.567732      62.718824      223.74147     -120.24582     -119.84607      152.59737     -32.792312     -171.02345     -5.4501388      3148574.1    
    935000   348.82599      1.039781       0.84439886     1.8841799      190.10915      90.007159      184.19208     -0.42494654    -73.410096      63.225035     -132.90472     -11.244114     -160.07119      121.29929     -105.57608     -10.608734     -101.40668      3151744.7    
    940000   349.56904      1.0419959      0.8423428      1.8843387      190.03737      90.000368      184.12928     -0.42073985    -73.129855      62.029254     -115.826       -250.37792      72.047541     -5.6147285     -17.60054       22.953958     -98.052126      3149242.8    
    945000   350.26472      1.0440696      0.84350283     1.8875724      190.03845      89.958568      184.16902     -0.38942217    -73.119368      63.039827     -123.97462     -461.33851     -48.947225     -153.6786      -23.762615     -30.189185     -211.42012      3148477.5    
    950000   349.73666      1.0424955      0.84594233     1.8884379      190.18692      89.953203      184.34412     -0.43612707    -72.95962       62.493137     -112.27963     -48.824976     -193.76728      240.26649      67.763528      107.44372     -118.29063      3153745      
    955000   349.32652      1.041273       0.84446678     1.8857398      189.9291       89.996419      184.27073     -0.39379794    -73.760346      62.719248     -510.37643     -341.92249     -14.164639      185.22546      169.08609     -181.54411     -288.82119      3149728.4    
    960000   350.02766      1.043363       0.84542214     1.8887851      190.05646      89.952626      184.29358     -0.369054      -72.942371      62.654259      331.96274      375.71177      86.346753      105.07831     -21.781708      10.913949      264.67375      3150697.3    
    965000   350.61359      1.0451095      0.84651794     1.8916274      190.02353      89.98679       184.3997      -0.35887626    -72.439098      62.561145      62.101737     -31.603539     -106.01145      100.43202      12.120847     -12.539781     -25.171084      3153162.5    
    970000   349.33806      1.0413074      0.84517834     1.8864857      190.16059      89.975159      184.19405     -0.42329769    -73.030552      62.477079      285.19212      577.51138      166.21968     -21.797183     -95.747484      12.085148      342.9744       3151510.4    
    975000   349.62369      1.0421588      0.84578842     1.8879472      190.01947      89.973815      184.28287     -0.41975108    -73.568822      62.812852      229.77243      141.61215     -108.56763      54.456678     -68.211358      107.52207      87.605652      3150643      
    980000   350.45149      1.0446263      0.84586924     1.8904955      190.13135      89.999624      184.18115     -0.32296498    -72.773831      62.921414     -298.26164     -312.09381      33.688036      17.158342      118.26595     -64.422088     -192.22247      3151661.8    
    985000   349.95495      1.0431462      0.84555208     1.8886983      189.89146      90.025523      184.2451      -0.30371692    -72.804604      62.841938      112.76608      47.735512      345.72776      128.11726     -66.897897      112.02684      168.74312      3149684.3    
    990000   350.42658      1.044552       0.84344465     1.8879967      190.03164      89.978953      184.28132     -0.37505316    -73.359897      63.398313      136.06848     -137.60514      65.583892     -141.44444     -177.32178     -45.507955      21.349078      3150998.4    
    995000   349.86499      1.0428781      0.84719685     1.8900749      190.11807      90.017075      184.30621     -0.36491183    -73.426073      62.700708     -320.3088      -388.41761      36.672003      155.53082      78.407675      74.546962     -224.01814      3154192.9    
   1000000   348.96788      1.0402039      0.84659996     1.8868039      190.07092      89.999748      184.33639     -0.50707484    -73.327563      62.795366     -179.59348     -217.98643     -178.71341     -181.19526     -161.63601     -65.587115     -192.09777      3153319.9    
Loop time of 8240.97 on 1536 procs for 1000000 steps with 345600 atoms

Performance: 10.484 ns/day, 2.289 hours/ns, 121.345 timesteps/s, 41.937 Matom-step/s
99.5% CPU use with 1536 MPI tasks x no OpenMP threads

MPI task timing breakdown:
Section |  min time  |  avg time  |  max time  |%varavg| %total
---------------------------------------------------------------
Pair    | 919.66     | 967.06     | 1326.1     |  82.9 | 11.73
Bond    | 37.75      | 43.709     | 50.858     |  66.5 |  0.53
Kspace  | 3789.7     | 4153       | 4296.3     |  57.1 | 50.39
Neigh   | 1146.8     | 1179       | 1232.8     |  40.0 | 14.31
Comm    | 493.89     | 718.67     | 828.78     | 177.8 |  8.72
Output  | 11.085     | 11.619     | 12.261     |   9.7 |  0.14
Modify  | 1039.7     | 1110.7     | 1188.2     | 107.9 | 13.48
Other   |            | 57.23      |            |       |  0.69

Nlocal:            225 ave         248 max         203 min
Histogram: 6 36 140 266 422 256 225 124 52 9
Nghost:        4065.68 ave        4155 max        3952 min
Histogram: 5 17 61 128 290 371 422 184 48 10
Neighs:        52007.2 ave       57728 max       46653 min
Histogram: 8 50 158 272 384 283 222 114 36 9

Total # of neighbors = 79883046
Ave neighs/atom = 231.14307
Ave special neighs/atom = 9.4
Neighbor list builds = 161429
Dangerous builds = 4422
unfix           1
undump          1
unfix		langevin

######################################
# SIMULATION DONE
Total wall time: 45:58:25
