LAMMPS (27 Jun 2024)
include lmp.in
#smiles: Cc1c(C)c(C)c(C)c(C)c1C
units real
atom_style full

dimension 3
boundary p p p  #p p m

bond_style hybrid harmonic
angle_style hybrid harmonic
dihedral_style hybrid charmm
# special_bonds amber # same as special_bonds lj 0.0 0.0 0.5000 coul 0.0 0.0 0.83333
special_bonds amber lj 0.0 0.0 0.50000 coul 0.0 0.0 0.83333 angle yes dihedral no
box tilt large

The 'box' command has been removed and will be ignored


read_data lmp.dat
Reading data file ...
  triclinic box = (0 0 0) to (30.8471 17.6224 57.5148) with tilt (0.0233 -6.027 -0.9687)
  8 by 4 by 8 MPI processor grid
  reading atoms ...
  3840 atoms
  reading velocities ...
  3840 velocities
  scanning bonds ...
  4 = max bonds/atom
  scanning angles ...
  6 = max angles/atom
  scanning dihedrals ...
  8 = max dihedrals/atom
  triclinic box = (0 0 0) to (30.8471 17.6224 57.5148) with tilt (0.0233 -6.027 -0.9687)
  8 by 4 by 8 MPI processor grid
  reading bonds ...
  3840 bonds
  reading angles ...
  6912 angles
  reading dihedrals ...
  3840 dihedrals
Finding 1-2 1-3 1-4 neighbors ...
  special bond factors lj:    0        0        0.5     
  special bond factors coul:  0        0        0.83333 
     4 = max # of 1-2 neighbors
     7 = max # of 1-3 neighbors
    17 = max # of 1-4 neighbors
  13824 = # of 1-3 neighbors before angle trim
  13824 = # of 1-3 neighbors after angle trim
    19 = max # of special neighbors
  special bonds CPU = 0.473 seconds
  read_data CPU = 0.564 seconds

neighbor 2.0 multi
neigh_modify every 2 delay 4 check yes
#neigh_modify every 2 delay 10

pair_style lj/cut/coul/long 9.0 9.0
pair_modify mix arithmetic shift no tail yes
kspace_style pppm 0.0005
kspace_modify gewald 0.29202898720871845 mesh 32 32 60 order 6

pair_coeff 1 1   0.1094000   3.3996695
pair_coeff 2 2   0.0860000   3.3996695
pair_coeff 3 3   0.0157000   2.6495328

#pair_modify mix arithmetic
thermo_style custom step temp vol press etotal pe ke epair ecoul elong evdwl ebond eangle edihed eimp emol etail #    cella cellb cellc cellalpha cellbeta cellgamma density pxx pyy pzz pxy pxy pyz
thermo_modify lost ignore flush yes

#compute peatom all pe/atom
#dump 1 all custom 1 dump.lammpstrj id type q x y z fx fy fz c_peatom element
#dump_modify 1 sort id pad 9 element C C H

#minimize 1e-5 1e-5 100 100
#run 0

variable temperature equal      300.000
variable patm equal        1.000
variable dt equal        1.000
variable trelax equal   50000.000
variable deform_steps equal       50.000
variable ele_string string "C C H"
variable strain_total equal        0.30
variable strainrate equal 2.000000e+08
variable direction1 string yz
variable direction2 string xz
replicate  5 5 3
Replication is creating a 5x5x3 = 75 times larger system...
  triclinic box = (0 0 0) to (154.2355 88.112 172.5444) with tilt (0.1165 -18.081 -2.9061)
  8 by 4 by 8 MPI processor grid
  288000 atoms
  288000 bonds
  518400 angles
  288000 dihedrals
Finding 1-2 1-3 1-4 neighbors ...
  special bond factors lj:    0        0        0.5     
  special bond factors coul:  0        0        0.83333 
     4 = max # of 1-2 neighbors
     7 = max # of 1-3 neighbors
    17 = max # of 1-4 neighbors
  1036800 = # of 1-3 neighbors before angle trim
  1036800 = # of 1-3 neighbors after angle trim
    19 = max # of special neighbors
  special bonds CPU = 0.014 seconds
  replicate CPU = 0.039 seconds
#include lmp.in

variable srate      equal ${strainrate}/1e15
variable srate      equal 200000000/1e15
variable thermo     equal "ceil(abs(1e12 / v_strainrate))"
variable tdamp      equal 100*${dt}
variable tdamp      equal 100*1
variable pdamp      equal 1000*${dt}
variable pdamp      equal 1000*1
variable pe         equal pe

# for units real, pressure is in [atmospheres] = 0.101325 [MPa]
variable sxx        equal "-pxx*0.101325"
variable syy        equal "-pyy*0.101325"
variable szz        equal "-pzz*0.101325"
variable sxz        equal "-pxz*0.101325"
variable syz        equal "-pyz*0.101325"
variable sxy        equal "-pxy*0.101325"
variable steps      equal ceil(abs(${strain_total}/${srate}))
variable steps      equal ceil(abs(0.3/${srate}))
variable steps      equal ceil(abs(0.3/2e-07))
variable dump_steps equal ceil(${steps}/${deform_steps})
variable dump_steps equal ceil(1500000/${deform_steps})
variable dump_steps equal ceil(1500000/50)
variable strain     equal "step*v_srate"
variable    xcm     equal xcm(all,x)
variable    ycm     equal xcm(all,y)
variable    zcm     equal xcm(all,z)
variable    xhi     equal xhi
variable    yhi     equal yhi
variable    zhi     equal zhi
variable    xlo     equal xlo
variable    ylo     equal ylo
variable    zlo     equal zlo
variable    xy      equal xy
variable    xz      equal xz
variable    yz      equal yz


print "strainrate ${strainrate}"
strainrate 200000000
print "srate ${srate}"
srate 2e-07
print "steps ${steps}"
steps 1500000
print "dump_steps ${dump_steps}"
dump_steps 30000


thermo          1000
neighbor        1.0    bin
neigh_modify    every 1 delay 5 check yes
thermo_style    custom step temp ke pe etotal lx ly lz pxx pyy pzz pxy pxz pyz vol
WARNING: New thermo_style command, previous thermo_modify settings will be lost (../output.cpp:904)
thermo_modify   lost warn norm yes
timestep 	    ${dt}
timestep 	    1

#======================== Energy minimization
min_style       cg
minimize        1.0e-25 1.0e-25 100 100000

CITE-CITE-CITE-CITE-CITE-CITE-CITE-CITE-CITE-CITE-CITE-CITE-CITE

Your simulation uses code contributions which should be cited:

- Type Label Framework: https://doi.org/10.1021/acs.jpcb.3c08419

@Article{Gissinger24,
 author = {Jacob R. Gissinger, Ilia Nikiforov, Yaser Afshar, Brendon Waters, Moon-ki Choi, Daniel S. Karls, Alexander Stukowski, Wonpil Im, Hendrik Heinz, Axel Kohlmeyer, and Ellad B. Tadmor},
 title = {Type Label Framework for Bonded Force Fields in LAMMPS},
 journal = {J. Phys. Chem. B},
 year =    2024,
 volume =  128,
 number =  13,
 pages =   {3282–-3297}
}

- neighbor multi command: doi:10.1016/j.cpc.2008.03.005, doi:10.1007/s40571-020-00361-2

@Article{Intveld08,
 author =  {in 't Veld, P. J. and S. J.~Plimpton and G. S. Grest},
 title =   {Accurate and Efficient Methods for Modeling Colloidal
            Mixtures in an Explicit Solvent using Molecular Dynamics},
 journal = {Comput.\ Phys.\ Commut.},
 year =    2008,
 volume =  179,
 pages =   {320--329}
}

@article{Shire2020,
 author = {Shire, Tom and Hanley, Kevin J. and Stratford, Kevin},
 title = {{DEM} Simulations of Polydisperse Media: Efficient Contact
          Detection Applied to Investigate the Quasi-Static Limit},
 journal = {Computational Particle Mechanics},
 year = {2020}
@article{Monti2022,
 author = {Monti, Joseph M. and Clemmer, Joel T. and Srivastava, 
           Ishan and Silbert, Leonardo E. and Grest, Gary S. 
           and Lechman, Jeremy B.},
 title = {Large-scale frictionless jamming with power-law particle 
          size distributions},
 journal = {Phys. Rev. E},
 volume = {106}
 issue = {3}
 year = {2022}
}

CITE-CITE-CITE-CITE-CITE-CITE-CITE-CITE-CITE-CITE-CITE-CITE-CITE

Switching to 'neigh_modify every 1 delay 0 check yes' setting during minimization
PPPM initialization ...
  using 12-bit tables for long-range coulomb (../kspace.cpp:342)
  G vector (1/distance) = 0.29202899
  grid = 32 32 60
  stencil order = 6
  estimated absolute RMS force accuracy = 0.43780429
  estimated relative force accuracy = 0.0013184346
  using double precision KISS FFT
  3d grid and FFT values/proc = 2310 256
Generated 3 of 3 mixed pair_coeff terms from arithmetic mixing rule
Neighbor list info ...
  update: every = 1 steps, delay = 0 steps, check = yes
  max neighbors/atom: 2000, page size: 100000
  master list distance cutoff = 10
  ghost atom cutoff = 10
  binsize = 5, bins = 35 19 35
  1 neighbor lists, perpetual/occasional/extra = 1 0 0
  (1) pair lj/cut/coul/long, perpetual
      attributes: half, newton on
      pair build: half/bin/newton/tri
      stencil: half/bin/3d/tri
      bin: standard
Per MPI rank memory allocation (min/avg/max) = 15.82 | 15.83 | 15.83 Mbytes
   Step          Temp          KinEng         PotEng         TotEng           Lx             Ly             Lz            Pxx            Pyy            Pzz            Pxy            Pxz            Pyz           Volume    
         0   0              0              4.2827135      4.2827135      154.2355       88.112         172.5444       137337.16      121512.55      216523.26     -4296.0206     -4808.4677      2649.1896      2344878.1    
        68   0              0             -0.29776265    -0.29776265     154.2355       88.112         172.5444      -3049.4015     -2714.9352      949.69994     -929.58427     -773.95775      313.02907      2344878.1    
Loop time of 2.36164 on 256 procs for 68 steps with 288000 atoms

98.3% CPU use with 256 MPI tasks x no OpenMP threads

Minimization stats:
  Stopping criterion = linesearch alpha is zero
  Energy initial, next-to-last, final = 
      4.28271349719475 -0.297762652207213 -0.297762652207216
  Force two-norm initial, final = 49683.189 26.045691
  Force max component initial, final = 140.90583 0.090422541
  Final line search alpha, max atom move = 3.0551451e-06 2.7625399e-07
  Iterations, force evaluations = 68 173

MPI task timing breakdown:
Section |  min time  |  avg time  |  max time  |%varavg| %total
---------------------------------------------------------------
Pair    | 1.3        | 1.3375     | 1.5924     |   2.1 | 56.63
Bond    | 0.032145   | 0.033409   | 0.039104   |   0.5 |  1.41
Kspace  | 0.38713    | 0.63134    | 0.68684    |   3.5 | 26.73
Neigh   | 0          | 0          | 0          |   0.0 |  0.00
Comm    | 0.20654    | 0.24541    | 0.29122    |   3.9 | 10.39
Output  | 0          | 0          | 0          |   0.0 |  0.00
Modify  | 0          | 0          | 0          |   0.0 |  0.00
Other   |            | 0.114      |            |       |  4.83

Nlocal:           1125 ave        1129 max        1121 min
Histogram: 32 32 32 32 0 0 32 32 32 32
Nghost:         7648.5 ave        7663 max        7631 min
Histogram: 32 0 64 32 0 0 32 0 0 96
Neighs:         287138 ave      288997 max      285709 min
Histogram: 18 35 28 37 26 41 38 24 3 6

Total # of neighbors = 73507200
Ave neighs/atom = 255.23333
Ave special neighs/atom = 9.4
Neighbor list builds = 0
Dangerous builds = 0
#fix             BoxRelax all box/relax tri 0.0  vmax 0.01 nreset 10 fixedpoint ${xcm} ${ycm} ${zcm}
#minimize        1.0e-25 1.0e-25 100 100# 000 1000000
#unfix           BoxRelax
dump            1 all custom 10000 0.dump element id mol type x y z
undump          1

#========================= Global setting for NPT simulation
fix             langevin all langevin ${temperature} ${temperature} ${tdamp} 32258453 zero yes
fix             langevin all langevin 300 ${temperature} ${tdamp} 32258453 zero yes
fix             langevin all langevin 300 300 ${tdamp} 32258453 zero yes
fix             langevin all langevin 300 300 100 32258453 zero yes

#======================== NPT equilibration
velocity        all create ${temperature} 1938072 mom yes rot no
velocity        all create 300 1938072 mom yes rot no
#fix             1 all npt temp ${temperature} ${temperature} ${tdamp} iso ${pressure} ${pressure} ${pdamp}
fix             1 all nph tri ${patm} ${patm} ${pdamp} fixedpoint ${xcm} ${ycm} ${zcm} flip no
fix             1 all nph tri 1 ${patm} ${pdamp} fixedpoint ${xcm} ${ycm} ${zcm} flip no
fix             1 all nph tri 1 1 ${pdamp} fixedpoint ${xcm} ${ycm} ${zcm} flip no
fix             1 all nph tri 1 1 1000 fixedpoint ${xcm} ${ycm} ${zcm} flip no
fix             1 all nph tri 1 1 1000 fixedpoint 71.0268906520106 ${ycm} ${zcm} flip no
fix             1 all nph tri 1 1 1000 fixedpoint 71.0268906520106 42.1898972658382 ${zcm} flip no
fix             1 all nph tri 1 1 1000 fixedpoint 71.0268906520106 42.1898972658382 86.2722295295029 flip no

dump            1 all custom 20000 equilibrium.*.dump element id mol type x y z
dump_modify     1 element ${ele_string}
dump_modify     1 element C C H
run             ${trelax}
run             50000
PPPM initialization ...
  using 12-bit tables for long-range coulomb (../kspace.cpp:342)
  G vector (1/distance) = 0.29202899
  grid = 32 32 60
  stencil order = 6
  estimated absolute RMS force accuracy = 0.43780429
  estimated relative force accuracy = 0.0013184346
  using double precision KISS FFT
  3d grid and FFT values/proc = 2310 256
Generated 3 of 3 mixed pair_coeff terms from arithmetic mixing rule
Per MPI rank memory allocation (min/avg/max) = 14.7 | 14.7 | 14.71 Mbytes
   Step          Temp          KinEng         PotEng         TotEng           Lx             Ly             Lz            Pxx            Pyy            Pzz            Pxy            Pxz            Pyz           Volume    
        68   300            0.89423991    -0.29776265     0.59647726     154.2355       88.112         172.5444       1972.3748      2305.0568      5969.8527     -919.12229     -775.24155      325.92914      2344878.1    
      1000   298.67934      0.89030329     0.64047636     1.5307796      155.94989      89.104355      177.34472      764.84386      990.79489      2783.5507     -34.44348      -293.20744     -84.539146      2464349.3    
      2000   300.69884      0.89632302     0.65970644     1.5560295      156.80032      89.431264      180.06516      245.1393      -15.653836      912.23696     -56.050881     -97.631567      12.17051       2525026.8    
      3000   299.44771      0.89259363     0.670972       1.5635656      157.13204      89.476881      181.40904      135.11953      45.190247      359.26097     -27.261152      40.910827     -238.00641      2550553.9    
      4000   299.94258      0.89406876     0.6730975      1.5671663      157.22669      89.522271      181.92752     -169.24983     -137.34585     -37.698494      61.5484       -20.872801     -0.91498642     2560682.8    
      5000   300.42739      0.89551387     0.67124999     1.5667639      157.30297      89.521479      181.98021      97.989382      265.9589       82.719097      1.3381212     -40.165418     -33.429549      2562644.3    
      6000   299.85527      0.89380851     0.6765648      1.5703733      157.33502      89.534219      182.00973     -87.523974      275.01084     -55.880057      94.238617      110.60903      40.137102      2563947.1    
      7000   300.0673       0.89444053     0.67557257     1.5700131      157.24896      89.532577      181.9888       467.95823      203.73597      55.225091     -112.74664      24.146351      8.7699006      2562202.9    
      8000   299.81567      0.89369045     0.67616882     1.5698593      157.41626      89.524102      182.02884     -293.49326      247.5372      -418.57751      4.7203047      70.711522     -14.215057      2565250.5    
      9000   299.49828      0.89274439     0.67668897     1.5694334      157.42682      89.5214        182.04902     -315.61426     -6.1556385     -6.9401604      6.9806366      1.4513998      14.743359      2565629.5    
     10000   299.24868      0.89200038     0.67646204     1.5684624      157.2861       89.526635      182.1083       156.17103      7.1332342      54.627729     -60.663015      95.723397      32.208717      2564320.8    
     11000   300.30485      0.89514861     0.67406628     1.5692149      157.16046      89.507576      182.02821      331.57658      354.56496     -137.08707      186.65261      33.430049      152.92347      2560600.3    
     12000   300.09876      0.89453429     0.67808844     1.5726227      157.36973      89.568489      182.02114     -66.888717      413.85787      155.77773      201.97732      87.169871     -70.796364      2565655.2    
     13000   300.58443      0.89598198     0.67563246     1.5716144      157.16711      89.558777      182.04694      286.67809      78.310337      54.656823     -195.73066     -13.79403       20.131752      2562437.1    
     14000   300.25666      0.89500498     0.67554706     1.570552       157.31461      89.532676      181.93462     -57.370796      38.413268     -80.63378       63.173774     -48.870226     -68.128356      2562512.4    
     15000   300.06519      0.89443422     0.67762363     1.5720578      157.39436      89.478638      182.00597      157.92864     -136.99464     -85.002519      52.109863      118.75514     -107.48162      2563269      
     16000   299.75147      0.89349909     0.67629086     1.56979        157.34847      89.553762      182.12585      299.22756      2.4383156      58.669428     -82.504334     -168.44828     -159.04967      2566362.2    
     17000   300.92397      0.89699408     0.67284791     1.569842       157.23208      89.516748      182.00528     -191.64703     -38.57068       25.739658      129.52002     -23.375645     -34.621987      2561706.9    
     18000   299.8314       0.89373736     0.67448684     1.5682242      157.33979      89.525863      182.00975      6.2814263     -245.7223       153.39479     -163.7478       7.6565242      12.180906      2563785.7    
     19000   300.37914      0.89537006     0.6777138      1.5730839      157.31516      89.521187      182.08335      269.60326     -156.35842     -315.44832      104.37898      53.767711      40.757712      2564287.1    
     20000   300.49964      0.89572923     0.67675592     1.5724851      157.28949      89.524006      181.99769      275.02457     -141.73983      25.630404     -51.2835       -80.930272      22.765959      2562743.2    
     21000   299.13428      0.89165938     0.67562958     1.567289       157.29426      89.540817      182.02408      128.88421     -415.63732      30.82426       13.709152      46.661613     -98.147411      2563673.9    
     22000   300.52111      0.89579322     0.67724182     1.573035       157.28135      89.565705      182.07705      151.01013     -358.61713     -51.35839       454.3077       61.491409     -17.019924      2564922.1    
     23000   299.55556      0.89291514     0.67730869     1.5702238      157.3659       89.544064      181.95466      155.38579      209.32524     -21.312438      50.664725      33.467386      25.103901      2563956.4    
     24000   300.45826      0.8956059      0.67535488     1.5709608      157.31834      89.52642       181.81973     -241.27215     -292.3062       151.17873     -268.4841      -0.20507234     176.62872      2560775.9    
     25000   300.1758       0.89476392     0.67545113     1.570215       157.29961      89.546583      182.00119     -44.13259       119.20536      386.13376     -268.95908     -24.329406      67.842034      2563603.8    
     26000   299.58414      0.89300032     0.67742491     1.5704252      157.2947       89.518502      182.15884     -129.73128     -104.89304      87.642884     -304.32609      10.574445     -62.074742      2564939.7    
     27000   300.53908      0.89584679     0.67466112     1.5705079      157.35312      89.454271      181.9629      -36.910558      247.70372      91.04474       50.894962     -95.471549      48.014531      2561293.1    
     28000   299.80582      0.89366111     0.67580562     1.5694667      157.41467      89.526126      181.93267     -290.57675      177.79644      104.64802      46.081466      33.313898     -111.4229       2563927.2    
     29000   299.64397      0.89317867     0.67632518     1.5695039      157.36341      89.489992      182.01709     -249.72284     -165.71071      73.427641      45.587072      22.91845      -130.38027      2563246.6    
     30000   299.314        0.89219507     0.67577705     1.5679721      157.36915      89.528192      181.98832      20.581406     -10.750603      3.9547791     -76.337287     -10.551249     -12.165793      2564029      
     31000   300.05893      0.89441556     0.67472151     1.5691371      157.29366      89.498468      182.06156      131.85039     -84.220899     -388.17491      168.86173     -145.68135     -57.004331      2562979.2    
     32000   299.57934      0.89298601     0.67419057     1.5671766      157.35389      89.507485      182.12314     -62.091827     -160.5657      -67.784192      62.288725     -101.36245      78.540557      2565086.2    
     33000   299.71691      0.89339608     0.67613806     1.5695341      157.34967      89.557196      181.93986      43.285556      141.36483     -82.384198     -128.87996     -11.05772       87.755676      2563859.2    
     34000   299.47565      0.89267692     0.67715548     1.5698324      157.31247      89.535693      181.97832      91.965837     -60.112356     -52.834806     -34.959255     -58.904282      71.707462      2563179.4    
     35000   300.47973      0.89566989     0.67503939     1.5707093      157.29698      89.547924      182.02645      367.98173     -370.05883     -4.1994487      187.13607     -99.493029      7.7944573      2563955      
     36000   300.13899      0.89465421     0.67413786     1.5687921      157.31669      89.544341      181.99076     -208.12733      77.468942      154.96171     -55.378069      30.743371     -104.33229      2563671      
     37000   299.53804      0.8928629      0.6742298      1.5670927      157.31172      89.512373      182.0848       271.32706      67.458435     -41.335376     -123.0026      -55.637155      42.785139      2563999      
     38000   299.99         0.89421011     0.67234906     1.5665592      157.34327      89.518557      182.10871     -151.67703     -34.682778      108.57338      91.347266      103.98604     -130.86007      2565027.1    
     39000   300.03247      0.8943367      0.67431476     1.5686515      157.27649      89.523633      182.00609     -49.741297     -194.04303     -50.795298      13.927351     -163.19545     -50.911705      2562639.1    
     40000   300.39722      0.89542394     0.67367578     1.5690997      157.36315      89.511916      182.06508     -237.5991       146.87383     -81.60079       7.9574865      114.83532      160.01896      2564546.3    
     41000   300.609        0.89605521     0.6784484      1.5745036      157.36357      89.496276      182.23995     -79.972366      263.27836     -180.47625      34.266879      257.27045     -21.992672      2566567.9    
     42000   300.39409      0.89541461     0.6745423      1.5699569      157.35342      89.534904      182.06572     -95.493393     -321.98753     -72.443414     -36.123862      66.117767     -1.5662827      2565055.3    
     43000   299.33891      0.89226935     0.67456149     1.5668308      157.38747      89.523038      182.12732     -57.439672      13.700482      79.933491      281.47671      55.354009      89.082751      2566138.3    
     44000   300.20238      0.89484318     0.67693657     1.5717798      157.38097      89.484136      181.97977     -211.54692      279.9494      -114.68556      53.169693      10.410441      16.651113      2562839.3    
     45000   299.94735      0.89408297     0.67310023     1.5671832      157.32638      89.539696      182.03824      58.863794      186.1249      -179.61534     -221.70114     -78.503029      206.09787      2564364.6    
     46000   300.70743      0.89634863     0.67456385     1.5709125      157.20296      89.550096      182.04859      46.722396     -313.34163     -32.839353      4.9985653     -28.428498      12.906117      2562796.2    
     47000   299.43142      0.8925451      0.67594475     1.5684898      157.21162      89.549638      182.05077      257.24375     -77.854998      103.78497      156.5282       163.09794     -7.9399268      2562955.2    
     48000   299.75807      0.89351876     0.67364592     1.5671647      157.2802       89.54029       181.92599      174.23255     -8.0482324     -80.766595      271.1558      -51.118131      167.89018      2562048.2    
     49000   299.41667      0.89250113     0.67587124     1.5683724      157.35156      89.530384      182.01796      173.60467     -572.03053     -78.664751      104.20865      65.479399      185.97503      2564222.7    
     50000   300.68347      0.89627719     0.67714395     1.5734211      157.29539      89.515146      181.98515      189.26048     -101.21512      48.859972      55.200315     -44.533002     -9.5061264      2562409.1    
     50068   300.3691       0.89534011     0.67401816     1.5693583      157.29282      89.523784      181.9752       58.695466     -147.47108     -15.926783      75.821494     -21.784894     -112.26316      2562474.3    
Loop time of 572.743 on 256 procs for 50000 steps with 288000 atoms

Performance: 7.543 ns/day, 3.182 hours/ns, 87.299 timesteps/s, 25.142 Matom-step/s
99.4% CPU use with 256 MPI tasks x no OpenMP threads

MPI task timing breakdown:
Section |  min time  |  avg time  |  max time  |%varavg| %total
---------------------------------------------------------------
Pair    | 233.7      | 237.5      | 245.98     |  10.8 | 41.47
Bond    | 10.184     | 10.567     | 11.289     |   6.8 |  1.84
Kspace  | 88.577     | 97.614     | 105.69     |  35.4 | 17.04
Neigh   | 119.37     | 122.92     | 126.49     |  16.9 | 21.46
Comm    | 68.754     | 79.779     | 94.007     |  70.5 | 13.93
Output  | 0.11625    | 0.13276    | 0.14644    |   2.3 |  0.02
Modify  | 15.601     | 19.488     | 23.01      |  43.8 |  3.40
Other   |            | 4.743      |            |       |  0.83

Nlocal:           1125 ave        1151 max        1102 min
Histogram: 2 9 24 52 63 52 33 14 6 1
Nghost:        7179.62 ave        7279 max        7109 min
Histogram: 4 16 39 69 56 34 20 14 3 1
Neighs:         266215 ave      274797 max      257551 min
Histogram: 1 5 14 44 59 77 34 14 5 3

Total # of neighbors = 68150944
Ave neighs/atom = 236.63522
Ave special neighs/atom = 9.4
Neighbor list builds = 6795
Dangerous builds = 0
unfix           1
undump          1

variable	yzv 	equal	yz
variable	yzzo	equal	${yzv}
variable	yzzo	equal	-6.37264974271847

#========================DEFORMATION
reset_timestep  0
dump            1 all custom ${dump_steps} shear.*.dump element id mol type x y z
dump            1 all custom 30000 shear.*.dump element id mol type x y z
dump_modify     1 element ${ele_string}
dump_modify     1 element C C H
compute         cc1 all chunk/atom molecule
compute         myChunk all com/chunk cc1

fix             1 all nph x ${patm} ${patm} ${pdamp}  y ${patm} ${patm} ${pdamp} z ${patm} ${patm} ${pdamp} xy ${patm} ${patm} ${pdamp} fixedpoint ${xcm} ${ycm} ${zcm}
fix             1 all nph x 1 ${patm} ${pdamp}  y ${patm} ${patm} ${pdamp} z ${patm} ${patm} ${pdamp} xy ${patm} ${patm} ${pdamp} fixedpoint ${xcm} ${ycm} ${zcm}
fix             1 all nph x 1 1 ${pdamp}  y ${patm} ${patm} ${pdamp} z ${patm} ${patm} ${pdamp} xy ${patm} ${patm} ${pdamp} fixedpoint ${xcm} ${ycm} ${zcm}
fix             1 all nph x 1 1 1000  y ${patm} ${patm} ${pdamp} z ${patm} ${patm} ${pdamp} xy ${patm} ${patm} ${pdamp} fixedpoint ${xcm} ${ycm} ${zcm}
fix             1 all nph x 1 1 1000  y 1 ${patm} ${pdamp} z ${patm} ${patm} ${pdamp} xy ${patm} ${patm} ${pdamp} fixedpoint ${xcm} ${ycm} ${zcm}
fix             1 all nph x 1 1 1000  y 1 1 ${pdamp} z ${patm} ${patm} ${pdamp} xy ${patm} ${patm} ${pdamp} fixedpoint ${xcm} ${ycm} ${zcm}
fix             1 all nph x 1 1 1000  y 1 1 1000 z ${patm} ${patm} ${pdamp} xy ${patm} ${patm} ${pdamp} fixedpoint ${xcm} ${ycm} ${zcm}
fix             1 all nph x 1 1 1000  y 1 1 1000 z 1 ${patm} ${pdamp} xy ${patm} ${patm} ${pdamp} fixedpoint ${xcm} ${ycm} ${zcm}
fix             1 all nph x 1 1 1000  y 1 1 1000 z 1 1 ${pdamp} xy ${patm} ${patm} ${pdamp} fixedpoint ${xcm} ${ycm} ${zcm}
fix             1 all nph x 1 1 1000  y 1 1 1000 z 1 1 1000 xy ${patm} ${patm} ${pdamp} fixedpoint ${xcm} ${ycm} ${zcm}
fix             1 all nph x 1 1 1000  y 1 1 1000 z 1 1 1000 xy 1 ${patm} ${pdamp} fixedpoint ${xcm} ${ycm} ${zcm}
fix             1 all nph x 1 1 1000  y 1 1 1000 z 1 1 1000 xy 1 1 ${pdamp} fixedpoint ${xcm} ${ycm} ${zcm}
fix             1 all nph x 1 1 1000  y 1 1 1000 z 1 1 1000 xy 1 1 1000 fixedpoint ${xcm} ${ycm} ${zcm}
fix             1 all nph x 1 1 1000  y 1 1 1000 z 1 1 1000 xy 1 1 1000 fixedpoint 69.6604183166288 ${ycm} ${zcm}
fix             1 all nph x 1 1 1000  y 1 1 1000 z 1 1 1000 xy 1 1 1000 fixedpoint 69.6604183166288 40.4799034509483 ${zcm}
fix             1 all nph x 1 1 1000  y 1 1 1000 z 1 1 1000 xy 1 1 1000 fixedpoint 69.6604183166288 40.4799034509483 86.2722295295034
#fix             1 all nph tri ${patm} ${patm} ${pdamp}
fix             2 all ave/time 2 100 ${thermo} v_strain v_sxx v_syy v_szz v_sxz v_syz v_sxy v_pe file output.dat
fix             2 all ave/time 2 100 5000 v_strain v_sxx v_syy v_szz v_sxz v_syz v_sxy v_pe file output.dat
fix             6 all ave/time 2 100 ${thermo} c_myChunk[*] file center.dat mode vector
fix             6 all ave/time 2 100 5000 c_myChunk[*] file center.dat mode vector
fix             7 all print ${thermo} "${xhi} ${xlo} ${yhi} ${ylo} ${zhi} ${zlo} ${xy} ${xz} ${yz}" screen no file box_parameters.dat
fix             7 all print 5000 "${xhi} ${xlo} ${yhi} ${ylo} ${zhi} ${zlo} ${xy} ${xz} ${yz}" screen no file box_parameters.dat

variable	srate1	equal	1*${srate}
variable	srate1	equal	1*2e-07
variable	srate2	equal	1.25*${srate}
variable	srate2	equal	1.25*2e-07

#======================== load
fix             3 all deform 1 xz erate -${srate1} yz erate ${srate2} units box remap x flip no
fix             3 all deform 1 xz erate -2e-07 yz erate ${srate2} units box remap x flip no
fix             3 all deform 1 xz erate -2e-07 yz erate 2.5e-07 units box remap x flip no
run             ${steps}
run             1500000
PPPM initialization ...
  using 12-bit tables for long-range coulomb (../kspace.cpp:342)
  G vector (1/distance) = 0.29202899
  grid = 32 32 60
  stencil order = 6
  estimated absolute RMS force accuracy = 0.52494402
  estimated relative force accuracy = 0.0015808533
  using double precision KISS FFT
  3d grid and FFT values/proc = 2310 256
Generated 3 of 3 mixed pair_coeff terms from arithmetic mixing rule
Per MPI rank memory allocation (min/avg/max) = 14.97 | 14.97 | 14.98 Mbytes
   Step          Temp          KinEng         PotEng         TotEng           Lx             Ly             Lz            Pxx            Pyy            Pzz            Pxy            Pxz            Pyz           Volume    
         0   300.3691       0.89534011     0.67401816     1.5693583      157.29282      89.523784      181.9752       58.695466     -147.47108     -15.926783      75.821494     -21.784894     -112.26316      2562474.3    
      1000   299.98294      0.89418905     0.67461601     1.5688051      157.35018      89.587684      182.06293     -46.333854     -349.1036       123.1137       38.602916     -4.8364241     -5.3688113      2566475.3    
      2000   300.2107       0.89486797     0.67451747     1.5693854      157.3108       89.561745      181.95634     -276.00158     -215.57528     -116.60061      149.06354      15.836219     -144.71473      2563588.3    
      3000   299.63804      0.89316098     0.67828055     1.5714415      157.27584      89.533262      182.03186     -373.84259     -244.17216      8.6671572      54.30803       76.898706     -95.718988      2563266.8    
      4000   299.79665      0.89363378     0.67790703     1.5715408      157.25574      89.559945      182.20667     -140.52157     -461.08192     -330.84901     -46.790852     -101.02319     -283.22424      2566165      
      5000   300.03038      0.89433047     0.67517527     1.5695057      157.41219      89.56491       182.12349      506.1153       94.661538     -56.824284      88.166349     -110.93809     -68.280377      2567687.9    
      6000   299.64833      0.89319166     0.67693996     1.5701316      157.35763      89.552966      182.1214      -133.07965     -190.96856      202.62239      11.420305      57.855545      66.865561      2566426.1    
      7000   300.43627      0.89554035     0.6750374      1.5705777      157.29955      89.487179      182.06937     -105.21698     -195.3917      -136.45146      170.70054     -134.24627     -33.015032      2562861.8    
      8000   299.73178      0.8934404      0.67504099     1.5684814      157.35424      89.518808      182.05248     -220.35447     -17.933323      44.392391     -59.233725     -78.758259      7.4567197      2564421      
      9000   300.21364      0.89487673     0.67557943     1.5704562      157.34042      89.506359      182.03203     -61.908656      380.21973      168.80702      4.9186529     -21.21366       103.35503      2563551.3    
     10000   300.02217      0.89430598     0.678395       1.572701       157.38558      89.536078      181.98239     -61.134556     -51.043731      45.720755      146.97336      1.0008686     -20.131828      2564438.9    
     11000   299.53941      0.89286699     0.67538677     1.5682538      157.2549       89.524292      181.96208     -49.505706      154.76762     -155.73802     -111.85701      131.7494       169.31722      2561686.5    
     12000   300.55621      0.89589787     0.67558095     1.5714788      157.3326       89.501136      181.98577     -20.107878     -103.90962      62.28184      -116.24584      14.19818      -25.116727      2562622.9    
     13000   299.68232      0.89329297     0.67600544     1.5692984      157.28761      89.53367       182.03234     -159.23519     -347.52727      84.288042     -13.200285      172.77711     -77.248079      2563477.1    
     14000   300.78474      0.89657906     0.6765716      1.5731507      157.32348      89.498678      182.06361      201.88702      180.6716       311.75549     -18.214955     -114.83738     -41.912215      2563500      
     15000   300.75995      0.89650517     0.67374139     1.5702466      157.28952      89.515782      181.97262      146.50051      385.9678       9.2095261     -87.102227      3.7153189      41.639865      2562155.4    
     16000   300.17785      0.89477005     0.67617181     1.5709419      157.26378      89.518134      182.09103     -58.73462      -28.399305     -164.62605      171.91938     -27.025599     -105.27831      2563470.3    
     17000   300.15699      0.89470786     0.6761482      1.5708561      157.32587      89.534373      182.01388     -126.67167      77.30001      -99.218195      181.64644      201.94275     -6.3801003      2563860.7    
     18000   299.90524      0.89395745     0.67643265     1.5703901      157.38745      89.53273       182.02604     -364.09683      90.409713      46.738351     -269.72791     -113.4551      -86.560627      2564988.6    
     19000   300.08896      0.89450509     0.67695518     1.5714603      157.30543      89.530752      182.15625     -187.17629     -375.5161      -73.422039      73.778125      12.224918      46.383103      2565429.1    
     20000   300.09249      0.89451561     0.67248646     1.5670021      157.35201      89.539993      182.02661     -69.771003      62.542961     -8.2545158     -221.06715      138.91189     -176.5623       2564627.1    
     21000   301.01614      0.89726881     0.67590255     1.5731714      157.2925       89.475348      181.96609     -25.378602      201.69202     -58.172651     -35.15795       58.679629      24.542283      2560954.5    
     22000   300.10771      0.89456098     0.67351945     1.5680804      157.2921       89.477645      182.063        102.40152      170.73857     -79.416593      9.016327       49.421294     -6.6443209      2562377.8    
     23000   299.42595      0.89252877     0.67690955     1.5694383      157.34305      89.496469      182.07137     -117.39631     -224.74202     -168.03454     -12.689178      74.890312     -89.807214      2563864.8    
     24000   299.87477      0.89386661     0.67402546     1.5678921      157.41373      89.520584      182.08252      120.96695      191.267       -190.49916      88.914497     -16.717219      75.83625       2565864.8    
     25000   300.15817      0.89471139     0.67567129     1.5703827      157.32351      89.487073      182.15856      221.77142      111.51402      159.91736     -422.59971     -77.149813     -47.080265      2564504.8    
     26000   299.91141      0.89397584     0.67488878     1.5688646      157.35917      89.5395        182.14646     -450.74859     -26.560622      133.47862     -74.61742       36.541031     -35.717687      2566418.4    
     27000   300.14292      0.89466594     0.67816289     1.5728288      157.39215      89.544905      182.00531     -254.31636     -28.687096     -174.60833     -19.401074     -62.617374     -55.505533      2565122      
     28000   299.55637      0.89291753     0.67704699     1.5699645      157.28089      89.579725      182.13106     -250.63559     -436.69114      43.792077     -226.846        58.771922      13.645637      2566077.1    
     29000   300.02512      0.8943148      0.67446537     1.5687802      157.34714      89.531467      182.09565     -359.28099      75.786808      52.603805     -23.4553       -21.741311     -159.91175      2565276.1    
     30000   299.57377      0.89296941     0.67515004     1.5681195      157.47084      89.533032      181.95001     -291.80261     -67.738862      54.81277      -2.4607283     -102.97787     -71.60614       2565284.3    
     31000   299.99722      0.89423163     0.67611431     1.5703459      157.38836      89.493315      182.05208     -164.8998      -287.51066     -93.190446      134.0385       155.87107     -40.056215      2564241.1    
     32000   299.40694      0.89247212     0.6755122      1.5679843      157.21429      89.472765      182.11984      612.14446      25.575722      38.629495      420.36948      2.7482077     -67.11549       2561769.9    
     33000   300.40734      0.8954541      0.67551446     1.5709686      157.34254      89.55374       182.0577       66.177448      173.75559      26.0488        35.892731     -92.744185     -99.055448      2565304.5    
     34000   299.83625      0.8937518      0.67654492     1.5702967      157.37802      89.51785       182.07034     -99.603297     -341.59883     -164.8729       119.85901      55.429668      57.697053      2565032.7    
     35000   299.79395      0.8936257      0.6760849      1.5697106      157.32104      89.515016      182.12413     -40.399326     -132.56759     -212.6291       55.805273      96.86086      -97.27597       2564780.5    
     36000   299.57196      0.892964       0.67413923     1.5671032      157.34323      89.536982      182.3015       85.446017      516.12534     -214.92656      5.6216494     -73.340745      156.95652      2568270.6    
     37000   300.5951       0.89601377     0.67409619     1.57011        157.39213      89.524317      182.02398     -387.72265     -157.0325      -352.71674      45.154372     -24.715403     -41.629551      2564794.9    
     38000   299.93891      0.89405782     0.67563154     1.5696894      157.34892      89.512534      182.11027     -89.646179      251.27536     -85.516081     -118.79768      110.59372     -113.29384      2564968.6    
     39000   300.42908      0.8955189      0.6762861      1.571805       157.33299      89.482357      182.07313      417.57846      48.941896     -1.3939776      151.24938      57.408777     -185.79813      2563321.6    
     40000   299.31598      0.89220098     0.67672512     1.5689261      157.34603      89.467995      182.0749      -111.17707      179.68923      260.83765      49.358337     -76.851239      45.413779      2563147.4    
     41000   299.93325      0.89404095     0.67810386     1.5721448      157.39479      89.507707      182.09161     -39.124479     -246.9153       34.419003      32.544204      16.209331     -44.892449      2565315.1    
     42000   299.64776      0.89318995     0.6726724      1.5658623      157.31032      89.50235       181.98238      130.60865      43.366415      29.202171      305.09321      7.6956763      37.954357      2562247      
     43000   299.99671      0.8942301      0.67552525     1.5697554      157.40847      89.488157      182.0763      -41.640985     -246.96848     -27.885787      162.45897     -3.3261632      77.816577      2564762.1    
     44000   300.50369      0.8957413      0.67545467     1.571196       157.4494       89.487594      182.20598     -22.146684      277.79679     -94.18991       119.91764     -114.95176     -40.467244      2567240      
     45000   299.83718      0.89375459     0.67558277     1.5693374      157.33527      89.489896      182.12966      72.131509      74.630581      142.70577     -209.76695      74.894856     -134.56421      2564370.5    
     46000   299.8995       0.89394035     0.67747935     1.5714197      157.34254      89.490586      182.01023     -157.20549      62.200471      67.781349      131.7918       6.1518412     -150.96484      2562827.1    
     47000   300.19404      0.8948183      0.67427551     1.5690938      157.28745      89.494418      182.06388     -516.55883      358.08769     -34.448701      48.185764      81.62712      -156.09561      2562794.7    
     48000   300.04726      0.89438078     0.67584244     1.5702232      157.31968      89.479914      182.0563       255.86922      253.31064      90.532196     -39.173913      234.92107      90.001867      2562797.7    
     49000   300.21465      0.89487975     0.67369766     1.5685774      157.31794      89.499508      182.10062      277.16201     -353.4357      -218.03303      18.653046      57.721548      29.74339       2563954.6    
     50000   300.33212      0.89522991     0.675819       1.5710489      157.28026      89.511463      182.16348     -135.82543     -222.77118      87.645961     -2.9271291     -10.016252     -48.801508      2564567.9    
     51000   299.49924      0.89274724     0.67579444     1.5685417      157.34359      89.536791      181.88503      8.68065       -67.898102     -83.298404      113.31271      24.441293     -43.23456       2562403.6    
     52000   300.78387      0.89657648     0.676437       1.5730135      157.44819      89.512412      182.17531      312.93197      228.84658      187.90669     -91.156168     -6.3241951     -53.244015      2567500      
     53000   299.51382      0.89279069     0.67651519     1.5693059      157.36877      89.48727       182.05234     -215.45972     -95.170412      33.510103      54.824007      50.120339     -160.47459      2563752.4    
     54000   300.98249      0.89716851     0.67451024     1.5716787      157.35325      89.524612      182.08857     -39.252465      186.74997      166.18123      53.124964      40.774499     -118.65458      2565079.7    
     55000   299.06595      0.89145569     0.67708357     1.5685393      157.37672      89.527556      182.07878      90.795562     -196.15762      205.6008      -4.1139616      76.74318      -165.34359      2565408.7    
     56000   299.7862       0.89360261     0.67403901     1.5676416      157.32375      89.47815       182.06298     -34.153591     -172.39407      24.376509     -26.391614      150.61003     -2.1729464      2562907.5    
     57000   299.78064      0.89358604     0.67610965     1.5696957      157.38479      89.468409      182.06798      113.03945     -31.10804       19.047958      31.194191      84.906141     -40.841691      2563693.1    
     58000   300.65465      0.8961913      0.67630053     1.5724918      157.35814      89.49719       182.0864      -4.9240761     -30.359392     -30.718796     -151.07066     -26.929643      70.747581      2564343.1    
     59000   299.59722      0.89303929     0.67609193     1.5691312      157.28229      89.532273      182.04028      232.55366      13.838745     -59.614687     -28.302294     -89.656572     -143.69744      2563462.2    
     60000   300.10639      0.89455703     0.67512817     1.5696852      157.35747      89.531534      182.06176      291.16922     -45.376613     -167.29469     -164.04336      21.193469     -29.51259       2564969.1    
     61000   300.34799      0.8952772      0.6744983      1.5697755      157.48055      89.483628      182.04974     -131.41227     -344.77124     -2.2345966      109.442       -0.51233549     92.732195      2565432.4    
     62000   299.12408      0.89162898     0.67696471     1.5685937      157.40357      89.482438      182.15731     -7.282952      -249.49161     -23.525383     -119.97315     -1.5852389      33.882228      2565659.3    
     63000   299.9811       0.89418358     0.67392406     1.5681076      157.4954       89.525655      182.12146     -235.57268     -507.8944      -15.179694      247.24311      149.9469      -82.261049      2567890.6    
     64000   299.99933      0.89423791     0.67464213     1.56888        157.42768      89.516169      182.01427      109.08394      317.7731       74.338087     -87.811164      162.05677     -67.041696      2565003.9    
     65000   300.35115      0.89528661     0.67836257     1.5736492      157.37174      89.509369      182.08548      410.65439      250.57049     -51.315134     -88.377167      75.049866     -269.14829      2564900.8    
     66000   299.19413      0.89183778     0.67600527     1.567843       157.30327      89.517902      182.07938      337.40727     -72.279765      31.966231     -106.76466      5.2690973      143.14171      2563943.2    
     67000   299.55721      0.89292003     0.67521642     1.5681365      157.48942      89.485235      182.1083      -155.68467      292.48856      115.27118     -57.899365      26.625109     -119.15563      2566448.1    
     68000   299.55242      0.89290576     0.67705611     1.5699619      157.48096      89.491978      182.17797     -264.98328     -23.929188     -37.168016     -81.321744      93.67858      -243.72461      2567485.6    
     69000   300.33409      0.89523576     0.67367415     1.5689099      157.28948      89.490599      182.06788      392.96091      344.32062      65.176974     -35.41986       79.061609     -114.48552      2562774.7    
     70000   299.86379      0.8938339      0.6776069      1.5714408      157.49014      89.477535      182.15751     -20.468057      199.74192     -49.612071     -65.507037      174.98902      12.613261      2566932.6    
     71000   300.23433      0.89493841     0.67439567     1.5693341      157.46155      89.474536      182.10951      79.280662     -106.24259      127.53066      261.07911     -82.748346     -67.836449      2565704.3    
     72000   300.21248      0.89487328     0.67772505     1.5725983      157.44176      89.501502      182.06477     -240.06047     -277.37162     -115.8221       15.231612      130.86055     -117.02405      2565524.5    
     73000   299.96942      0.89414876     0.67766696     1.5718157      157.45952      89.465123      182.16134     -181.0074       364.49026     -82.218126      24.745473      36.825707     -72.876853      2566131.4    
     74000   301.02638      0.89729933     0.67533943     1.5726388      157.37386      89.504583      182.19595      269.34943      32.406881      78.718657     -57.914242      56.665566     -131.79364      2566354.2    
     75000   299.87033      0.89385339     0.67479602     1.5686494      157.41813      89.520505      182.1868       266.18281     -285.4717       239.01385     -60.693995     -45.375898     -66.710232      2567403.9    
     76000   299.49534      0.89273563     0.67743173     1.5701674      157.41743      89.476465      182.10326      11.549399      27.22041       268.85633      254.6218       152.54642     -24.831507      2564952.7    
     77000   300.05781      0.89441222     0.67573765     1.5701499      157.38849      89.49483       182.0651       121.96318     -18.345046     -9.9155387     -225.36417     -28.449845     -69.409316      2564470.1    
     78000   299.7785       0.89357965     0.67588003     1.5694597      157.4187       89.48017       182.0573       262.81961      263.51697      39.791842     -74.420067     -7.8303776      48.910265      2564432.1    
     79000   300.01156      0.89427437     0.67521239     1.5694868      157.45284      89.509754      182.15319      230.43415      302.97415     -57.545196     -103.15461     -93.772422     -204.04831      2567187.7    
     80000   300.56639      0.89592821     0.67578589     1.5717141      157.39442      89.526518      182.0938      -213.3432      -115.64138      35.510362     -176.19113      132.2847      -123.67507      2565879      
     81000   299.69034      0.89331688     0.67562363     1.5689405      157.30998      89.53283       182.04778     -45.185238     -274.5945      -126.79273      231.93637      170.92028      66.776776      2564035.1    
     82000   300.17657      0.89476622     0.67786538     1.5726316      157.42594      89.496515      182.09321     -297.6543       93.425553      32.689641     -135.5767       140.001       -185.63591      2565524.6    
     83000   300.07289      0.89445718     0.67530344     1.5697606      157.38874      89.471269      182.24785     -272.14802      61.967977     -84.13846       100.74286      193.32894     -103.36211      2566372.3    
     84000   300.44521      0.89556701     0.67411399     1.569681       157.43311      89.481251      182.18709      57.965205     -70.208216      158.43512     -66.644833      164.39642     -126.71016      2566526.2    
     85000   300.25682      0.89500544     0.67543722     1.5704427      157.44324      89.484058      182.02595     -28.953284     -121.07381      146.63375      12.780809     -67.796384      8.7448532      2564501.7    
     86000   300.52419      0.89580241     0.67679293     1.5725953      157.46568      89.505941      182.06256     -225.37183     -113.91305     -297.75721      36.322347      36.991074     -5.7225047      2566010.6    
     87000   300.2616       0.89501969     0.67434378     1.5693635      157.37834      89.490339      182.17754     -171.4638      -58.378598     -100.76979     -329.88079      169.21056     -97.810447      2565759.5    
     88000   299.58413      0.89300029     0.6774985      1.5704988      157.35211      89.518704      182.1461       173.40063     -55.285088     -38.312631     -95.928345      7.1683935     -194.73047      2565702.2    
     89000   300.46526      0.89562676     0.67641454     1.5720413      157.43956      89.506672      182.113       -38.996169     -105.30462     -24.854766     -155.78721      49.853474     -34.697153      2566316.7    
     90000   300.15533      0.89470292     0.67717974     1.5718827      157.43519      89.483145      182.17286     -61.814897      147.13768     -82.911695     -69.654106     -118.05748      70.73878       2566414.1    
     91000   300.05254      0.89439651     0.67782365     1.5722202      157.48138      89.452838      182.25232     -128.65274      232.70822     -126.98201      294.90206      85.723755     -2.4325571      2567417.1    
     92000   300.3424       0.89526054     0.67604484     1.5713054      157.43024      89.490315      182.25347     -41.942074     -333.24515     -3.6202837     -123.92953     -22.029065     -354.39691      2567674.7    
     93000   299.76946      0.89355271     0.67663028     1.570183       157.50817      89.440053      182.26998      186.76768     -70.989897     -153.53397     -63.53716      -41.503014      57.094027      2567735.4    
     94000   300.37376      0.89535402     0.67617514     1.5715292      157.4485       89.470593      182.25748      220.62424      63.990483     -35.991585     -6.1963626      273.98337     -53.956262      2567463.1    
     95000   299.46529      0.89264606     0.67394056     1.5665866      157.48807      89.502436      182.02338      62.505741      101.70523      200.57162      110.67315      70.463094      47.749326      2565722.4    
     96000   299.78072      0.89358628     0.67725339     1.5708397      157.42888      89.538463      182.2081      -184.37146     -436.15416     -131.7772      -168.66661     -1.6151769     -25.893007      2568394.4    
     97000   300.53728      0.89584142     0.67586194     1.5717034      157.39268      89.480428      182.22601      84.937568     -84.033838      60.039285     -103.42382     -10.877285     -215.31553      2566391.8    
     98000   300.2615       0.8950194      0.67661868     1.5716381      157.51565      89.46396       182.20453     -136.24618      105.53479      238.93721     -61.541256      55.748324     -289.96242      2567621.5    
     99000   299.56784      0.89295172     0.67670693     1.5696586      157.45413      89.480128      182.13377      126.7516      -23.04983       424.20529     -160.33809      229.52514     -50.625994      2566085.5    
    100000   300.56041      0.89591037     0.67396851     1.5698789      157.426        89.480309      182.10439      86.559083     -245.59885     -281.81183      115.08204      21.449048     -0.95977926     2565218.5    
    101000   299.97342      0.89416068     0.67789366     1.5720543      157.47386      89.448255      182.13907     -83.364087      35.930776     -43.694744      165.07133      218.22345      25.981916      2565567.7    
    102000   299.77007      0.89355454     0.67412876     1.5676833      157.33903      89.449093      182.12257      75.776688     -209.73908     -11.210301      271.13666      44.248419      84.760125      2563162.7    
    103000   300.46467      0.89562501     0.67759427     1.5732193      157.44456      89.493166      182.23044      7.1538787     -155.69701      265.20436      201.24601      102.45349     -135.6479       2567665.5    
    104000   300.08888      0.89450485     0.67937752     1.5738824      157.43543      89.522252      182.07905     -368.04569     -33.309135      64.42164       218.52102      89.321113      200.05685      2566217.5    
    105000   300.21909      0.89489298     0.67549448     1.5703875      157.41973      89.436206      182.12922     -536.38156      240.30518     -104.30288     -113.12762      33.754173     -89.137628      2564201.5    
    106000   300.46297      0.89561994     0.67785378     1.5734737      157.48099      89.490322      182.11042     -257.98132     -36.569588      206.32735      136.42493     -77.225338      109.10503      2566486.6    
    107000   300.08645      0.8944976      0.67492979     1.5694274      157.4319       89.452026      182.19198      143.65473     -70.295146     -191.53106      18.397841      20.796609     -74.922561      2565737.2    
    108000   298.88553      0.8909179      0.67672126     1.5676392      157.44941      89.482831      182.17547     -204.89693     -183.93321      24.050047     -37.05318       112.34663     -55.949313      2566673.6    
    109000   299.50224      0.89275619     0.67511363     1.5678698      157.63643      89.457586      182.14652     -307.81242     -586.52886     -35.477843     -8.4619174      167.34316     -95.659271      2568589.1    
    110000   300.25535      0.89500105     0.67752569     1.5725267      157.5314       89.525915      182.26141      555.22398     -232.62158      27.259686      77.339878      95.230807     -25.645515      2570458.8    
    111000   300.13637      0.8946464      0.67673864     1.571385       157.50955      89.53032       182.24495     -58.721986      109.81436     -159.49325      120.97637     -24.739038     -170.37755      2569996.4    
    112000   300.00159      0.89424466     0.67667574     1.5709204      157.48679      89.486634      182.14267      149.01638     -84.475187      60.129821     -86.558348      47.599421     -64.808285      2566929.8    
    113000   300.34898      0.89528015     0.67507022     1.5703504      157.43604      89.448004      182.0931      -201.4048       278.43387     -22.435945     -154.70919      80.189846     -295.93902      2564296.9    
    114000   300.34897      0.89528013     0.67732874     1.5726089      157.45982      89.47297       182.23533     -237.99005     -184.86623     -18.116286     -3.0421077     -6.5870236      79.92203       2567403.9    
    115000   300.20616      0.89485444     0.67889967     1.5737541      157.55151      89.494249      182.20367      272.22689      139.60121      65.224474     -42.614355      257.33314     -212.20552      2569063.5    
    116000   300.02443      0.89431272     0.67721047     1.5715232      157.45433      89.464802      182.22277     -90.215978     -140.47564      87.716173     -15.759656      151.57537     -8.6884133      2566903.1    
    117000   300.2301       0.8949258      0.67558665     1.5705125      157.41166      89.417939      182.24319      152.12238     -87.531411     -71.998442     -112.20542      56.361487     -271.79099      2565150.6    
    118000   299.79746      0.89363617     0.67633144     1.5699676      157.55733      89.429437      182.2784      -45.168338      95.751189      46.574407      142.95992      188.61969     -88.260669      2568350.7    
    119000   299.65174      0.89320183     0.67603439     1.5692362      157.53011      89.449276      182.20174     -264.98993     -559.22887     -63.849278      17.130715     -28.852863     -63.233589      2567396.4    
    120000   300.64277      0.89615589     0.67541082     1.5715667      157.45332      89.446693      182.20541     -23.128688      112.93957     -126.19253      31.534413      62.911449     -138.42392      2566122.5    
    121000   299.8531       0.89380203     0.67574263     1.5695447      157.42174      89.44967       182.36269      23.617031      132.05054      93.08003      -54.258992      96.505969     -238.46996      2567907.9    
    122000   299.77386      0.89356584     0.67542138     1.5689872      157.43867      89.421489      182.28165      102.30964      91.853309      16.179009      22.021778     -66.945681     -40.744021      2566234.2    
    123000   299.83083      0.89373564     0.6776189      1.5713545      157.47814      89.471905      182.16253     -285.31095      70.646071     -88.713314      60.909436      254.61565     -59.018711      2566646.1    
    124000   299.85114      0.89379618     0.67752361     1.5713198      157.48284      89.443768      182.13069      185.77348      494.77506     -11.550589     -238.2247       77.641699     -161.21137      2565467.1    
    125000   299.05708      0.89142925     0.67662405     1.5680533      157.54108      89.438945      182.16049      297.66212      482.78486      110.39013     -11.768964      99.139925      77.905246      2566697.4    
    126000   300.1379       0.89465095     0.67668283     1.5713338      157.53561      89.435783      182.26811      180.55842      180.68521     -270.21416      86.656142     -1.2119978      12.666694      2568033.9    
    127000   299.91902      0.89399853     0.67799382     1.5719923      157.54207      89.472283      182.26159     -92.873474     -121.18175      88.91165      -162.10684      173.91782     -116.73618      2569095.4    
    128000   299.8131       0.89368279     0.677845       1.5715278      157.47516      89.501097      182.27642     -58.541996     -88.545469     -184.21554      28.547173      203.08498      17.396993      2569040.1    
    129000   300.68483      0.89628125     0.67682625     1.5731075      157.50502      89.479025      182.1828      -12.987729      104.31481      239.42271     -38.951418      23.073255     -127.21481      2567574.3    
    130000   300.51533      0.895776       0.677205       1.572981       157.4841       89.453267      182.14321      266.62848     -290.14479      99.528931      4.2019581     -4.3365961     -113.60266      2565936.6    
    131000   299.89565      0.89392887     0.67766387     1.5715927      157.58421      89.392662      182.18688     -123.81072      269.42384      225.78601     -108.90712      49.785526     -24.914361      2566443.2    
    132000   299.72642      0.89342442     0.67737007     1.5707945      157.50972      89.446863      182.20045      160.72764      245.04212      113.55968      3.1006251      291.97461     -57.969931      2566976.6    
    133000   299.90482      0.89395618     0.67586083     1.569817       157.51441      89.457643      182.22209     -182.86027     -10.318175      13.336003      288.06234      37.460582     -17.507283      2567667.3    
    134000   300.03782      0.89435264     0.6769065      1.5712591      157.4682       89.481675      182.31116      183.77972     -62.462847      20.779555     -49.281942      108.31739     -28.195646      2568858.7    
    135000   299.63213      0.89314336     0.6788291      1.5719725      157.61723      89.485729      182.21143      229.0514      -160.50249     -148.08527      279.49916     -35.903089     -310.48602      2569999.8    
    136000   299.55785      0.89292194     0.67821419     1.5711361      157.63587      89.465427      182.23592      225.36278     -72.115603      61.362176     -218.841        146.95461     -348.66191      2570065.9    
    137000   299.61969      0.89310627     0.6812228      1.5743291      157.61332      89.472839      182.30867      281.52401     -124.71777     -80.060305      153.2254       244.19055     -37.679137      2570937.1    
    138000   299.5134       0.89278944     0.67909477     1.5718842      157.55729      89.43753       182.23857      171.36922     -44.082678     -11.18144      -1.3028169      61.112639     -171.71813      2568021.1    
    139000   300.57112      0.89594229     0.67689155     1.5728338      157.52998      89.480454      182.12423     -291.16055      246.83099     -88.727562      143.62587      58.76371      -107.42157      2567196.6    
    140000   300.51115      0.89576354     0.67764335     1.5734069      157.41838      89.46132       182.31025      5.6298794     -392.0769       105.76817      293.72782      129.20978     -100.55713      2567449      
    141000   299.93786      0.89405468     0.68115597     1.5752106      157.51492      89.480738      182.33545      4.8157289     -92.341169     -91.155994     -39.186213      160.52444     -76.367735      2569936.4    
    142000   299.60323      0.89305721     0.67978976     1.572847       157.54773      89.494342      182.34751      76.193243      132.56095     -154.46138      19.06056       39.862831     -119.05504      2571032.5    
    143000   299.67536      0.89327222     0.67900419     1.5722764      157.47881      89.444283      182.35036      208.38097     -150.8535       93.905583      367.49409      71.516646     -101.14615      2568510.5    
    144000   300.41878      0.89548821     0.67642462     1.5719128      157.48997      89.455792      182.25609      85.276345     -28.246733     -95.867518      211.52292      117.97807     -106.02452      2567694.9    
    145000   300.38798      0.89539639     0.67520343     1.5705998      157.57075      89.455138      182.30553     -144.40636     -62.759774     -112.16362      0.092804918   -26.334023     -178.76863      2569689.9    
    146000   299.95348      0.89410126     0.67789956     1.5720008      157.57832      89.389117      182.30725      112.62135      201.36733      237.42858     -444.60375      21.904754     -82.36517       2567941.1    
    147000   300.147        0.89467809     0.67766264     1.5723407      157.51105      89.430485      182.32478     -168.51165      257.07639     -56.852318      172.20744      117.92592     -123.20358      2568279.7    
    148000   299.28799      0.89211756     0.67676053     1.5688781      157.47927      89.425552      182.38102      39.581414      319.25128      175.1069      -85.814108     -168.16848      74.295627      2568411.8    
    149000   299.98225      0.894187       0.67806593     1.5722529      157.5943       89.420259      182.39907     -138.71234     -129.16962      42.010209     -156.3525       29.805563     -303.40232      2570390.1    
    150000   300.99445      0.89720416     0.67761167     1.5748158      157.63511      89.49933       182.34867     -124.31522      162.02521     -184.47831      72.330801      211.42247     -21.312315      2572618.2    
    151000   301.13053      0.89760979     0.67649456     1.5741043      157.60554      89.446677      182.32528     -402.83674      50.472464     -241.72401     -14.502641      163.78774     -162.89638      2570292.7    
    152000   300.50922      0.89575778     0.678756       1.5745138      157.51246      89.461577      182.22655      681.10911      273.83648      136.02775     -62.302663      146.54757     -47.005623      2567811.3    
    153000   300.22379      0.89490697     0.68004476     1.5749517      157.61984      89.467715      182.31449     -495.8662      -319.3429      -171.54285     -108.10606      145.29507     -52.347565      2570978.2    
    154000   299.61675      0.89309752     0.68120417     1.5743017      157.56468      89.455098      182.24256      139.46522      863.2952       200.92223      70.287599      246.26263     -79.019486      2568702.3    
    155000   300.08873      0.89450438     0.67815527     1.5726597      157.58002      89.466233      182.37339     -226.67999     -216.49914     -54.373444      218.21654      36.448596      14.630025      2571116.7    
    156000   300.60483      0.89604279     0.67645872     1.5725015      157.57564      89.443887      182.38751      25.940654      406.38766     -189.23963     -141.33856      140.77583     -81.027049      2570602.1    
    157000   300.25262      0.89499291     0.67553389     1.5705268      157.627        89.400644      182.28713     -245.64319     -23.281643     -94.947601      176.46335      92.217703     -138.03397      2568782      
    158000   299.83239      0.89374029     0.68064323     1.5743835      157.49061      89.44036       182.20505     -137.08742     -174.32641     -226.72581     -12.650563      243.45379     -106.63405      2566543.5    
    159000   299.85394      0.89380454     0.67835231     1.5721568      157.57206      89.431168      182.31485      342.65804     -20.187651      69.935585     -23.127487      166.4153       3.3550445      2569154.2    
    160000   300.78732      0.89658675     0.67783037     1.5744171      157.58605      89.451722      182.32182     -38.954924     -403.64535      46.381165     -115.85225     -89.873005     -28.80387       2570071      
    161000   299.78167      0.89358911     0.67648734     1.5700765      157.45431      89.444122      182.24826      54.762509      184.16443     -38.702684      178.31708     -4.3284737     -315.67322      2566668.4    
    162000   299.72142      0.89340952     0.6781162      1.5715257      157.50473      89.412236      182.32241     -248.1663       55.693594     -48.531953     -69.205063      111.20023     -45.818164      2567619.1    
    163000   300.43903      0.89554856     0.67688699     1.5724356      157.62801      89.417747      182.29646     -564.60909     -437.11802     -64.118353     -113.22251      14.12782      -139.26614      2569421.5    
    164000   300.63026      0.89611858     0.67694348     1.5730621      157.59476      89.458804      182.18279      208.77367     -270.61169      197.00888     -98.013446      83.937227     -28.48764       2568456.5    
    165000   300.4432       0.89556101     0.67710035     1.5726614      157.61794      89.458587      182.30048     -207.46001     -264.37252      106.77353     -27.174444      178.96651     -79.850296      2570487.4    
    166000   300.26393      0.89502662     0.67604309     1.5710697      157.53546      89.440307      182.32637     -72.218905     -126.70672      132.41132     -21.166699      134.23033     -123.13323      2568982.2    
    167000   299.41003      0.89248133     0.67854577     1.5710271      157.61204      89.458848      182.35438      255.47267      579.89738     -71.153884     -25.224282      291.2431       161.8081       2571158.8    
    168000   299.72369      0.89341629     0.6803322      1.5737485      157.5901       89.432696      182.33183      519.78989      263.7681       116.76336      49.369301      99.944859     -117.72877      2569731.5    
    169000   299.84451      0.89377641     0.676877       1.5706534      157.59816      89.446176      182.37286      8.5584057     -195.80925     -308.93199     -308.98107     -134.28573     -129.69994      2570828.7    
    170000   300.60445      0.89604166     0.67871715     1.5747588      157.63736      89.457584      182.31519     -139.10131      57.01071       261.76467     -208.0582       196.65646     -244.25106      2570982.8    
    171000   299.6109       0.8930801      0.67961415     1.5726942      157.61209      89.443705      182.25415     -182.87033     -7.3806307     -4.4319837     -118.78639     -22.424609     -235.64887      2569311.3    
    172000   300.41261      0.89546981     0.67903591     1.5745057      157.61551      89.447034      182.5587       68.819722      586.48936     -144.82715      100.78236     -7.6043702     -167.74285      2573756.3    
    173000   300.2097       0.89486499     0.67796361     1.5728286      157.5914       89.422977      182.42415     -137.68387     -157.71311     -216.08026     -285.65284      186.62438     -213.69195      2570774.4    
    174000   300.25768      0.89500799     0.67949842     1.5745064      157.54835      89.426189      182.34978     -288.20907      276.17085      159.40978      77.180379     -24.902944     -54.035158      2569116.7    
    175000   299.2639       0.89204574     0.67844884     1.5704946      157.59395      89.450401      182.25327     -86.896775     -90.21094      -66.459286     -113.99524      119.34893     -272.04515      2569195.5    
    176000   300.1749       0.89476125     0.67424951     1.5690108      157.43338      89.478713      182.32743      95.466228      9.2684943      211.246        14.463114      111.18766     -207.61668      2568434.9    
    177000   299.22202      0.89192091     0.67891314     1.570834       157.51392      89.452593      182.37296      62.993825     -193.98816      233.09935      20.48605       11.200167      98.419082      2569640.2    
    178000   299.71473      0.89338957     0.67878128     1.5721709      157.5858       89.445151      182.39963     -262.0285       134.23844      40.466541      67.722289      58.854725     -4.9854041      2570974.9    
    179000   299.45932      0.89262827     0.67581269     1.568441       157.56209      89.429449      182.26357     -246.79524     -282.59734      62.281282     -364.89918      179.4853      -272.2039       2568219.7    
    180000   300.22956      0.89492419     0.67837619     1.5733004      157.57116      89.45366       182.38587      185.31604     -452.51767      163.02319     -48.289058      126.80024     -104.57656      2570786.6    
    181000   299.99256      0.89421774     0.68141537     1.5756331      157.56126      89.417033      182.48339      208.6054      -46.134269      76.510783      66.821083      194.70134     -51.261446      2570946.5    
    182000   300.72018      0.89638661     0.67946407     1.5758507      157.57995      89.424535      182.3755       109.88038     -36.994032      63.727362     -138.73133      50.841695     -170.82012      2569946.8    
    183000   299.62818      0.89313158     0.67759517     1.5707268      157.62822      89.476995      182.35918      159.32573      35.75077      -66.581648      220.90386      59.786548     -36.884121      2572012      
    184000   299.98841      0.89420536     0.6776489      1.5718543      157.70248      89.440664      182.43838      178.35217     -193.70833      98.124548     -301.55251      35.16796      -146.92712      2573296      
    185000   300.11111      0.8945711      0.67786922     1.5724403      157.65027      89.427459      182.44789      127.03792      235.46751      143.28774      168.15403      37.052359     -76.201962      2572198.3    
    186000   300.46449      0.89562448     0.67978974     1.5754142      157.64839      89.39117       182.48648     -439.16706     -562.26622     -130.83232      21.223389     -37.490278     -117.11212      2571667.7    
    187000   299.86805      0.8938466      0.68094072     1.5747873      157.55853      89.422674      182.33869     -104.10722      36.141368     -52.127336     -155.69142      237.22831     -242.39451      2569025.4    
    188000   299.37651      0.8923814      0.67811744     1.5704988      157.68881      89.460456      182.30722     -395.85442     -303.44159      136.58501     -33.34617      -86.167088     -260.51359      2571792      
    189000   300.03444      0.89434256     0.67877425     1.5731168      157.67733      89.47101       182.43127      180.31384     -352.82507      162.32522      148.99578     -142.13451     -189.68903      2573658.2    
    190000   299.86093      0.89382536     0.67925593     1.5730813      157.68204      89.435439      182.40845     -312.85812      70.575978      74.015497     -6.4985047      93.508257     -229.54339      2572390.1    
    191000   300.20506      0.89485115     0.67833334     1.5731845      157.63077      89.390342      182.45485     -462.08956     -176.92299      53.822095      219.79283      15.813367     -134.48708      2570910.8    
    192000   299.80417      0.89365617     0.67841237     1.5720685      157.63088      89.409136      182.4226       40.490326     -18.917853      295.801       -146.0916      -22.715834      38.463962      2570998.5    
    193000   300.08841      0.89450345     0.67795988     1.5724633      157.63103      89.38579       182.41284      83.885617      254.55936     -123.90309      204.78456     -50.655603     -86.523079      2570192.2    
    194000   300.15844      0.8947122      0.67750356     1.5722158      157.64638      89.432455      182.41833      230.80402     -265.86313     -119.44025      24.377834      87.728321     -63.663842      2571861.8    
    195000   299.52561      0.89282586     0.676527       1.5693529      157.50671      89.424724      182.33914     -55.175792      9.3093665     -15.757053      206.60085      143.1768      -167.16419      2568245.7    
    196000   300.97261      0.89713906     0.67875616     1.5758952      157.60702      89.390833      182.38197     -13.262778      201.0394      -178.1107       49.642878      201.8302      -65.073889      2569510.8    
    197000   299.5646       0.89294206     0.67777703     1.5707191      157.66827      89.409474      182.49959     -6.2708228      269.60153      89.84106       11.896922      49.338244     -225.02338      2572703.5    
    198000   299.65434      0.89320956     0.67722655     1.5704361      157.63124      89.4272        182.30274      51.239552     -193.64303     -76.694099      31.002333     -101.07305     -147.92852      2569834.3    
    199000   299.68953      0.89331447     0.67919329     1.5725078      157.68242      89.410127      182.2395      -313.60899     -99.81482       273.4886      -26.753037      123.64874     -144.59639      2569286.2    
    200000   299.9051       0.89395703     0.67724819     1.5712052      157.63685      89.400624      182.44581     -24.151243      430.24662     -70.71021      -196.78115      115.77312     -72.562412      2571178.3    
    201000   299.9775       0.89417286     0.67895786     1.5731307      157.58542      89.423927      182.48118      18.224827     -93.407342     -113.97125      151.05742      203.83399      20.067389      2571507.7    
    202000   300.20373      0.89484718     0.67904124     1.5738884      157.685        89.38727       182.49181     -134.04359     -101.13249     -142.34454      99.741923      179.30241     -21.739143      2572227.8    
    203000   299.45764      0.89262325     0.67867078     1.571294       157.65737      89.43282       182.47538     -94.482003      108.75268     -175.5085      -131.12565      5.2301047     -115.02359      2572855.9    
    204000   300.07019      0.89444912     0.68241982     1.5768689      157.70446      89.434833      182.53167      83.752493      234.11711     -290.68378     -112.55687      233.91398      5.8396965      2574476.3    
    205000   299.91812      0.89399583     0.68003837     1.5740342      157.70231      89.382824      182.382        169.73333     -108.52553      46.932797     -131.35392     -118.06018     -44.560608      2570834.5    
    206000   300.38035      0.89537366     0.67928528     1.5746589      157.69674      89.397832      182.36445     -49.099341      197.704       -175.62851      138.00918     -9.0554408     -47.898666      2570928      
    207000   299.82618      0.8937218      0.67780781     1.5715296      157.6312       89.376163      182.39295      46.83199       102.64888      189.11551      2.755067       23.47307      -162.50443      2569638.1    
    208000   299.62266      0.89311513     0.67839903     1.5715142      157.71272      89.413491      182.48848      44.295552      44.052796      43.275886      53.96422       9.6793217     -233.4887       2573387.8    
    209000   299.38047      0.89239323     0.67848856     1.5708818      157.63932      89.430285      182.40091      38.485261     -2.2026873     -99.045466      14.988994      63.842781     -100.29665      2571438.7    
    210000   300.07765      0.89447138     0.67815809     1.5726295      157.56456      89.478304      182.46404      336.53304      221.87805     -45.827971     -22.720539      35.300511     -117.10014      2572489.3    
    211000   300.1293       0.89462534     0.67935582     1.5739812      157.759        89.395623      182.56132     -162.31841      63.480173      113.42008     -54.707588      62.884689     -257.10529      2574655.7    
    212000   300.74803      0.89646964     0.6776813      1.5741509      157.66668      89.381976      182.44165      256.72073      118.42995      250.84805     -34.424382      160.51321     -284.59804      2571069.9    
    213000   300.55024      0.89588006     0.6809141      1.5767942      157.64942      89.406562      182.39855      341.45732     -10.756816      101.33324     -46.534596      22.902348     -75.446519      2570887.9    
    214000   299.54626      0.89288739     0.67758548     1.5704729      157.66107      89.420072      182.3796       78.201489      216.13462      82.779407      116.08394      180.63304     -31.981893      2571199.3    
    215000   299.84464      0.8937768      0.67889569     1.5726725      157.55608      89.435026      182.60528      428.67674      285.28315     -89.292119      183.5257       94.93537      -167.96939      2573096.9    
    216000   300.29437      0.89511737     0.67846788     1.5735852      157.66107      89.429289      182.47471      202.33787     -316.27837      9.3199901      32.832757      36.109414     -8.1730095      2572805.3    
    217000   300.56674      0.89592926     0.67732583     1.5732551      157.61917      89.403073      182.48969     -111.57366      124.81273      45.838533     -15.472575      88.715448     -70.081793      2571578.7    
    218000   299.94752      0.89408348     0.6800835      1.574167       157.64708      89.398093      182.41609      399.29462      482.9255      -129.8656      -168.66622      59.886251     -179.23265      2570853.4    
    219000   299.97354      0.89416105     0.68033953     1.5745006      157.62913      89.445802      182.38764      476.97609     -46.150697     -31.193237      24.866809     -113.53005     -174.30251      2571531.5    
    220000   299.63345      0.8931473      0.68065147     1.5737988      157.51806      89.458086      182.37935      314.18609      104.28837     -70.309911     -187.08072      254.59596      41.296199      2569955.5    
    221000   299.93912      0.89405844     0.67848158     1.57254        157.72684      89.439098      182.46421      15.522555     -391.49113      10.802002     -25.202264      98.986599     -56.125419      2574012.7    
    222000   299.55952      0.89292693     0.67823191     1.5711588      157.65809      89.405417      182.4381       38.514132      133.22594     -114.46613      106.98269      135.30496     -97.009578      2571553.9    
    223000   299.58672      0.89300801     0.67829018     1.5712982      157.73719      89.398761      182.46444     -541.11909     -100.07916      122.00927     -95.126217      35.693303     -96.285206      2573023.9    
[...]
   1422000   298.93607      0.89106856     0.67253388     1.5636024      157.15742      89.585435      182.03168      443.06227      161.03064     -82.831758      374.25932      5.1302152     -40.313815      2562826.9    
   1423000   300.06643      0.89443792     0.67668725     1.5711252      157.31365      89.547064      182.03823     -400.28443      102.74947     -136.17925      331.2488       21.130547     -124.52285      2564368      
   1424000   299.12184      0.89162229     0.67649003     1.5681123      157.33221      89.570929      181.93451      50.353479     -177.85195      50.834761     -111.15899      101.87247     -41.389042      2563892.5    
   1425000   300.2536       0.89499585     0.67584383     1.5708397      157.28609      89.556061      181.98164     -302.16331      91.573116     -200.27514      135.5555       35.275577     -110.32883      2563379.3    
   1426000   299.97191      0.89415619     0.67363047     1.5677867      157.28911      89.611431      182.03003     -324.77496     -208.64305     -100.77715      137.5951      -75.250957     -226.78401      2565695.5    
   1427000   299.14854      0.89170188     0.67529769     1.5669996      157.29388      89.659414      181.93444      11.87632      -153.63362      120.81409     -443.81105      212.36741     -87.763689      2565799      
   1428000   300.33541      0.89523971     0.67303964     1.5682793      157.35151      89.56098       182.01295      87.405399      172.4008       177.01615     -81.995033     -126.93978     -7.9535248      2565027.7    
   1429000   300.04528      0.89437489     0.67915612     1.573531       157.29581      89.58432       181.9581       89.329391     -232.5284       146.62646      26.557342      182.67517      98.957752      2564014.9    
   1430000   299.61936      0.89310529     0.67410278     1.5672081      157.31307      89.573435      181.86614     -83.553725      65.262975      41.474153     -52.871046      97.121099     -33.42188       2562688.9    
   1431000   300.1789       0.89477318     0.67429839     1.5690716      157.29558      89.604185      181.92585      187.76089      181.21603     -125.89972      29.996051      91.477067     -254.33225      2564125.2    
   1432000   299.92601      0.89401937     0.67668784     1.5707072      157.22899      89.58755       181.96984     -39.479931      96.419256     -55.264771     -80.44961       71.173826     -196.07789      2563183.5    
   1433000   300.23477      0.89493972     0.6768193      1.571759       157.35653      89.547457      182.10854     -67.022349      204.50968     -194.24864     -105.9049       115.48025     -27.132054      2566069.2    
   1434000   300.06814      0.89444301     0.67647468     1.5709177      157.37172      89.581489      182.09679     -97.84471       129.42473     -47.756697     -240.2807       195.29618     -139.33026      2567126.4    
   1435000   299.49577      0.8927369      0.67377463     1.5665115      157.33174      89.599919      182.03781     -719.91386      178.6449      -229.0812       44.272308      101.54758     -108.49976      2566170.8    
   1436000   299.55984      0.89292787     0.67768239     1.5706103      157.27282      89.573234      181.94816     -183.89469     -295.00622      79.810004      44.012014      52.073065     -102.39039      2563182.8    
   1437000   300.22804      0.89491965     0.67463698     1.5695566      157.25291      89.620296      181.94703     -12.651515     -419.24071     -96.533921     -114.88107      67.442494     -155.64286      2564189      
   1438000   299.52802      0.89283304     0.67475314     1.5675862      157.26687      89.641701      181.98347     -450.37376     -156.00813      50.545627     -4.2271043      175.75755     -210.08996      2565542.8    
   1439000   300.4853       0.89568649     0.67412926     1.5698158      157.20313      89.571988      182.02823      169.92007      262.61822      167.40967     -190.29377      163.8038      -30.33575       2563138.9    
   1440000   299.55133      0.89290251     0.67616831     1.5690708      157.19074      89.589376      182.08341     -213.22516      261.42307     -178.75748     -147.78669      150.24874      49.874367      2564211.5    
   1441000   298.72881      0.89045076     0.67563211     1.5660829      157.20036      89.583109      182.01495      370.97091      77.939694      51.117608     -81.45164       181.84921      108.07472      2563225      
   1442000   300.14682      0.89467755     0.67466972     1.5693473      157.22164      89.613561      182.03819     -116.28588     -349.72367      114.6626       86.808009      258.74237     -219.77072      2564770.9    
   1443000   299.5763       0.89297696     0.67965808     1.572635       157.36915      89.534317      181.96271     -297.97226      142.48599     -48.760599     -102.85878      193.56716     -244.32107      2563843.5    
   1444000   298.76653      0.89056319     0.67969697     1.5702602      157.38178      89.565167      182.12941      58.506134     -56.992299     -177.6655       80.715086      63.515725     -105.74191      2567282.5    
   1445000   299.59131      0.89302169     0.67453535     1.567557       157.2244       89.598894      182.09577     -91.922433     -295.73215      37.140847      35.084032     -12.24643      -122.82485      2565207.3    
   1446000   299.68704      0.89330703     0.67496374     1.5682708      157.25541      89.574844      181.91417      22.403118     -92.622293     -25.96461       24.769536      270.45767     -112.79141      2562466.4    
   1447000   300.6998       0.89632589     0.67544246     1.5717684      157.28579      89.605822      181.94995     -57.275219      343.91728      122.55881      192.56174     -27.063913     -35.546227      2564352.1    
   1448000   299.2988       0.89214976     0.67627897     1.5684287      157.25309      89.574846      182.09461     -36.597375      114.04185     -10.652264      115.36653      204.77691     -89.940057      2564970.3    
   1449000   299.27973      0.89209292     0.67610516     1.5681981      157.22685      89.575868      182.01745     -191.14998      105.54169      113.35508      96.400171      113.07359     -157.59977      2563485      
   1450000   300.40753      0.89545468     0.67696357     1.5724182      157.24656      89.575228      182.13005      81.919789      112.6921      -168.91625      121.85085      92.215133     -319.92424      2565373.9    
   1451000   300.79965      0.8966235      0.67681233     1.5734358      157.34319      89.601791      182.05587     -162.37071      39.242852      31.033249      55.602183     -60.29795      -276.71609      2566665.7    
   1452000   300.53578      0.89583698     0.67428897     1.5701259      157.31609      89.549443      181.99921     -285.15998     -522.87815     -238.59945      11.897391      159.19691     -175.51994      2563926.3    
   1453000   299.52208      0.89281532     0.67612988     1.5689452      157.31515      89.537958      182.01288      0.033088473   -202.46596      241.01152     -199.56737      142.1144      -138.74687      2563774.7    
   1454000   300.5607       0.89591126     0.67455299     1.5704642      157.32932      89.575655      181.98271     -95.149441     -518.91108     -228.5429       7.3473491      301.25        -205.48947      2564659.8    
   1455000   300.04744      0.89438131     0.67485163     1.5692329      157.22182      89.570978      182.12142      50.468304      93.12069       74.807255      182.73202      69.464638     -226.28107      2564727.1    
   1456000   300.56792      0.89593277     0.67640844     1.5723412      157.24358      89.596723      181.99804     -64.929475     -82.338664     -131.30044     -126.30621      113.21459     -60.469997      2564081.1    
   1457000   300.16244      0.8947241      0.67559781     1.5703219      157.27746      89.559524      181.91207      411.22004     -94.385928      156.1878      -36.807983      157.45588     -186.2987       2562357.8    
   1458000   300.29488      0.89511889     0.67568456     1.5708034      157.29992      89.588251      182.01334     -49.476708     -98.602018      272.63932     -12.213958      244.44514     -97.460814      2564972.9    
   1459000   300.16837      0.8947418      0.67474697     1.5694888      157.23429      89.571668      182.09099      194.08416     -3.109389       9.2825927      230.99662      59.382933      2.267738       2564521.6    
   1460000   299.65895      0.89322332     0.67402987     1.5672532      157.25222      89.576886      181.97915     -282.20205      22.649981      166.7489       201.22276      138.91871     -143.40482      2563388.2    
   1461000   300.16378      0.8947281      0.67763814     1.5723662      157.19945      89.58304       182.06346      171.50322     -100.95651      47.241743      55.963391      56.488192      89.308262      2563891.3    
   1462000   300.26615      0.89503324     0.67615627     1.5711895      157.25644      89.56835       182.09        -93.24249       175.36583     -37.847523      98.805848      76.561934     -25.992321      2564774.1    
   1463000   300.08248      0.89448578     0.67880761     1.5732934      157.33243      89.611692      182.1312      -116.95722     -324.26195     -13.776994      189.96185      139.6759      -265.95863      2567835.9    
   1464000   300.29751      0.89512674     0.67751859     1.5726453      157.27047      89.582643      182.00368      207.86752      155.79276     -85.12564      -381.00464      144.78403      34.131845      2564196.1    
   1465000   300.15486      0.89470151     0.67712384     1.5718254      157.24214      89.601051      182.03357     -97.174535      8.7496677     -24.65679      -136.71597     -10.702715     -112.39259      2564682.2    
   1466000   300.38384      0.89538405     0.67495428     1.5703383      157.20823      89.637425      181.93764     -429.98905     -223.95269      70.213872     -58.491974      85.319933     -119.76803      2563818.1    
   1467000   299.95446      0.89410416     0.67501789     1.569122       157.24319      89.595295      182.05414      93.379031     -256.54201      47.341101     -51.683329      151.02938     -271.06308      2564824.2    
   1468000   300.49417      0.89571293     0.67857502     1.574288       157.36173      89.611029      181.99718     -429.92505     -218.38881     -70.300289     -91.041524      73.741151     -71.232906      2566405.2    
   1469000   300.49532      0.89571636     0.67299316     1.5687095      157.27501      89.571489      182.05363      290.00672     -72.745239     -225.614        36.995769      14.629573     -121.8915       2564654.5    
   1470000   299.66351      0.8932369      0.67702069     1.5702576      157.26813      89.558765      182.19736     -76.853469     -100.60515     -249.48443     -198.72793      237.64923     -122.69713      2566202.3    
   1471000   300.47608      0.89565902     0.67595447     1.5716135      157.32487      89.568435      182.01711     -16.551175      87.159343      47.768896      220.76674      270.08932     -113.16478      2564865.4    
   1472000   299.11085      0.89158954     0.67858889     1.5701784      157.26224      89.601193      182.13891     -304.81998      10.243269     -12.383597     -11.835865      228.98418     -269.53795      2566498.3    
   1473000   299.65033      0.89319761     0.67965236     1.57285        157.34151      89.623034      182.04545      351.95226     -107.50463      224.69226      212.12987     -93.663294     -154.00614      2567099.9    
   1474000   299.7999       0.89364344     0.67532183     1.5689653      157.24707      89.638793      181.94438      76.451203     -445.23399      68.981583     -175.04807      224.99254     -11.267234      2564585.7    
   1475000   300.67648      0.89625636     0.67911139     1.5753677      157.33142      89.665364      182.13688      46.853792     -97.419934      61.676178     -146.49213      64.116348      28.428358      2569437.6    
   1476000   299.92757      0.89402401     0.67544602     1.56947        157.29366      89.591183      182.1235       280.90984      137.58275     -208.5613      -118.1091       239.3009      -91.104272      2566507.1    
   1477000   299.92819      0.89402585     0.67587887     1.5699047      157.35476      89.604991      182.11179     -13.10039       92.73761       124.69511      97.454465      67.654643     -108.29533      2567734.6    
   1478000   300.04487      0.89437366     0.67800347     1.5723771      157.33954      89.60801       181.91694     -178.399        6.9191628      50.175992      239.49127      268.37503     -180.45057      2564825.6    
   1479000   299.75134      0.89349871     0.67717447     1.5706732      157.32571      89.610587      181.95836     -370.28146      145.70759      231.21344     -50.690616      89.730229     -196.0388       2565257.9    
   1480000   300.41819      0.89548644     0.67756381     1.5730502      157.26837      89.571256      182.13269      41.615037      82.070658      109.3854      -371.83877      214.10302     -81.115831      2565653.2    
   1481000   300.33749      0.89524589     0.67665131     1.5718972      157.38371      89.499042      182.05142     -59.399878      224.88797      68.319428      91.374688      193.41497     -282.28269      2564320.1    
   1482000   299.6802       0.89328664     0.68016324     1.5734499      157.33793      89.604012      182.15808     -87.807421     -169.99105     -191.6032       122.93887      265.96734     -94.223076      2568084.6    
   1483000   300.99342      0.89720111     0.67316734     1.5703685      157.28692      89.580516      182.06507     -36.358702      111.98637     -149.01649     -1.0325994     -132.8062      -161.61813      2565268.3    
   1484000   299.46563      0.89264707     0.67347542     1.5661225      157.37177      89.533517      182.01307     -44.091557      104.01915      1.5509119     -103.94073      117.59417     -31.695404      2564572.8    
   1485000   299.19943      0.89185359     0.67764535     1.5694989      157.19981      89.565973      182.10825      700.68456      80.482566      286.49706     -232.19609      208.43301     -28.107801      2564039.4    
   1486000   300.57718      0.89596038     0.67503711     1.5709975      157.23442      89.611371      182.07187     -3.4605062      67.317937      300.75176      111.89389      253.67092     -26.169036      2565391.3    
   1487000   300.47091      0.89564359     0.67626417     1.5719078      157.27325      89.619614      182.06827      19.66638       220.42448      246.05572     -138.19926      5.1702446     -43.718857      2566209.9    
   1488000   300.42747      0.89551412     0.67613155     1.5716457      157.22291      89.630201      182.17164     -326.8929      -75.084786      92.80173       81.142678      129.97478     -180.49894      2567148.4    
   1489000   299.38045      0.89239317     0.67621119     1.5686044      157.28721      89.625616      182.03568      42.522472      2.4259892     -11.793142     -86.873897      81.91707      -307.44294      2566150.2    
   1490000   300.28465      0.89508838     0.68066465     1.575753       157.34974      89.623674      182.04076      398.35877      19.535533      81.837014     -40.05571       233.87912     -262.60897      2567186.5    
   1491000   300.35961      0.89531184     0.67584497     1.5711568      157.25122      89.59124       182.08994      83.719163      317.81663      152.18636     -96.809903      144.07172      9.5616481      2565343.6    
   1492000   301.0604       0.89740074     0.67602488     1.5734256      157.42586      89.567777      182.03302     -10.797439      83.267886     -176.61152      200.50349      154.38697      57.907418      2566717.4    
   1493000   300.63006      0.896118       0.67638056     1.5724986      157.28218      89.626958      182.17032      11.673402      74.327119     -68.893049      241.59791      240.26426     -102.39802      2568004.7    
   1494000   300.53394      0.89583148     0.67858        1.5744115      157.26279      89.596628      182.17239      125.91157     -284.78491     -89.263968      133.12693      104.03198     -286.72945      2566848.2    
   1495000   300.12512      0.89461286     0.67738339     1.5719962      157.3372       89.569755      182.13285      258.34054      388.85057     -184.1751      -105.962        312.79446     -106.21601      2566735.3    
   1496000   300.47537      0.8956569      0.67777003     1.5734269      157.26033      89.6106        182.05563     -38.598728     -9.4819879     -20.430866     -215.72186      408.66295     -254.88395      2565562.9    
   1497000   299.33875      0.89226885     0.67635926     1.5686281      157.28235      89.579304      181.96479      442.33314      23.960668     -66.227221     -233.57633      135.61334     -82.41262       2563746.1    
   1498000   299.90573      0.89395891     0.67811844     1.5720773      157.19555      89.570981      181.91321     -87.085093      63.050354      44.586541     -30.717857      166.27705     -189.7325       2561366.9    
   1499000   299.97292      0.89415918     0.67673547     1.5708946      157.27872      89.577877      182.08917     -206.38344      280.42036     -351.19073      54.430312      246.14248     -164.19629      2565398.6    
   1500000   299.11571      0.89160403     0.6785207      1.5701247      157.28222      89.581497      182.05245     -216.09466     -420.76677     -8.3834008      123.37723      123.81944     -60.560875      2565041.9    
Loop time of 17499.5 on 256 procs for 1500000 steps with 288000 atoms

Performance: 7.406 ns/day, 3.241 hours/ns, 85.717 timesteps/s, 24.686 Matom-step/s
99.4% CPU use with 256 MPI tasks x no OpenMP threads

MPI task timing breakdown:
Section |  min time  |  avg time  |  max time  |%varavg| %total
---------------------------------------------------------------
Pair    | 7067.4     | 7182.3     | 7358.6     |  56.7 | 41.04
Bond    | 306.44     | 317.17     | 338.1      |  38.3 |  1.81
Kspace  | 2698.8     | 2991.1     | 3221.4     | 209.8 | 17.09
Neigh   | 3516       | 3629       | 3746.9     |  98.8 | 20.74
Comm    | 2102       | 2413       | 2841.1     | 402.8 | 13.79
Output  | 1.2191     | 3.2494     | 3.4755     |  10.5 |  0.02
Modify  | 691.89     | 816.5      | 925.34     | 208.2 |  4.67
Other   |            | 147.1      |            |       |  0.84

Nlocal:           1125 ave        1151 max        1090 min
Histogram: 1 2 13 21 42 66 58 30 16 7
Nghost:        7538.42 ave        7619 max        7432 min
Histogram: 1 5 13 25 36 63 59 33 13 8
Neighs:         266034 ave      274652 max      256365 min
Histogram: 2 4 16 32 53 63 48 27 6 5

Total # of neighbors = 68104615
Ave neighs/atom = 236.47436
Ave special neighs/atom = 9.4
Neighbor list builds = 202797
Dangerous builds = 18
unfix           3

#======================== unload
#variable 	yz_new		equal	yz
#variable	yz_nn		equal	${yz_new}
#variable	difference	equal	${yz_nn}-${yzzo}
#variable	ratio		equal	v_difference/v_yz_nn
#variable	srate2		equal	v_ratio/${steps}
#print "yz ${yz_nn}"
#print "strainrate ${srate2}"


#fix             4 all deform 1 yz erate -${srate2} units box remap x
#fix             4 all deform 1 xz erate -${srate} units box remap x flip no
#fix             3 all deform 1 xz erate ${srate1} yz erate -${srate2} units box remap x flip no
#run             ${steps}
#unfix           4

#unfix           7  # box_parameters.dat
#unfix           6  # center.dat
#unfix           2  # output.dat
#unfix           1
#======================NPT equilibration
#fix             5 all nph tri ${patm} ${patm} ${pdamp} fixedpoint ${xcm} ${ycm} ${zcm} flip no
#run             ${trelax}
#unfix           5
######################################
# SIMULATION DONE
Total wall time: 5:01:15
