LAMMPS (27 Jun 2024)
include lmp.in
#smiles: Cc1c(C)c(C)c(C)c(C)c1C
units real
atom_style full

dimension 3
boundary p p p  #p p m

bond_style hybrid harmonic
angle_style hybrid harmonic
dihedral_style hybrid charmm
# special_bonds amber # same as special_bonds lj 0.0 0.0 0.5000 coul 0.0 0.0 0.83333
special_bonds amber lj 0.0 0.0 0.50000 coul 0.0 0.0 0.83333 angle yes dihedral no
box tilt large

The 'box' command has been removed and will be ignored


read_data lmp.dat
Reading data file ...
  triclinic box = (0 0 0) to (30.8471 17.6224 57.5148) with tilt (0.0233 -6.027 -0.9687)
  8 by 4 by 8 MPI processor grid
  reading atoms ...
  3840 atoms
  reading velocities ...
  3840 velocities
  scanning bonds ...
  4 = max bonds/atom
  scanning angles ...
  6 = max angles/atom
  scanning dihedrals ...
  8 = max dihedrals/atom
  triclinic box = (0 0 0) to (30.8471 17.6224 57.5148) with tilt (0.0233 -6.027 -0.9687)
  8 by 4 by 8 MPI processor grid
  reading bonds ...
  3840 bonds
  reading angles ...
  6912 angles
  reading dihedrals ...
  3840 dihedrals
Finding 1-2 1-3 1-4 neighbors ...
  special bond factors lj:    0        0        0.5     
  special bond factors coul:  0        0        0.83333 
     4 = max # of 1-2 neighbors
     7 = max # of 1-3 neighbors
    17 = max # of 1-4 neighbors
  13824 = # of 1-3 neighbors before angle trim
  13824 = # of 1-3 neighbors after angle trim
    19 = max # of special neighbors
  special bonds CPU = 0.525 seconds
  read_data CPU = 0.592 seconds

neighbor 2.0 multi
neigh_modify every 2 delay 4 check yes
#neigh_modify every 2 delay 10

pair_style lj/cut/coul/long 9.0 9.0
pair_modify mix arithmetic shift no tail yes
kspace_style pppm 0.0005
kspace_modify gewald 0.29202898720871845 mesh 32 32 60 order 6

pair_coeff 1 1   0.1094000   3.3996695
pair_coeff 2 2   0.0860000   3.3996695
pair_coeff 3 3   0.0157000   2.6495328

#pair_modify mix arithmetic
thermo_style custom step temp vol press etotal pe ke epair ecoul elong evdwl ebond eangle edihed eimp emol etail #    cella cellb cellc cellalpha cellbeta cellgamma density pxx pyy pzz pxy pxy pyz
thermo_modify lost ignore flush yes

#compute peatom all pe/atom
#dump 1 all custom 1 dump.lammpstrj id type q x y z fx fy fz c_peatom element
#dump_modify 1 sort id pad 9 element C C H

#minimize 1e-5 1e-5 100 100
#run 0

variable temperature equal      300.000
variable patm equal        1.000
variable dt equal        1.000
variable trelax equal   50000.000
variable deform_steps equal       50.000
variable ele_string string "C C H"
variable strain_total equal        0.30
variable strainrate equal 2.000000e+08
variable direction1 string yz
variable direction2 string xz
replicate  6 6 3
Replication is creating a 6x6x3 = 108 times larger system...
  triclinic box = (0 0 0) to (185.0826 105.7344 172.5444) with tilt (0.1398 -18.081 -2.9061)
  8 by 4 by 8 MPI processor grid
  414720 atoms
  414720 bonds
  746496 angles
  414720 dihedrals
Finding 1-2 1-3 1-4 neighbors ...
  special bond factors lj:    0        0        0.5     
  special bond factors coul:  0        0        0.83333 
     4 = max # of 1-2 neighbors
     7 = max # of 1-3 neighbors
    17 = max # of 1-4 neighbors
  1492992 = # of 1-3 neighbors before angle trim
  1492992 = # of 1-3 neighbors after angle trim
    19 = max # of special neighbors
  special bonds CPU = 0.019 seconds
  replicate CPU = 0.057 seconds
#include lmp.in

variable srate      equal ${strainrate}/1e15
variable srate      equal 200000000/1e15
variable thermo     equal "ceil(abs(1e12 / v_strainrate))"
variable tdamp      equal 100*${dt}
variable tdamp      equal 100*1
variable pdamp      equal 1000*${dt}
variable pdamp      equal 1000*1
variable pe         equal pe

# for units real, pressure is in [atmospheres] = 0.101325 [MPa]
variable sxx        equal "-pxx*0.101325"
variable syy        equal "-pyy*0.101325"
variable szz        equal "-pzz*0.101325"
variable sxz        equal "-pxz*0.101325"
variable syz        equal "-pyz*0.101325"
variable sxy        equal "-pxy*0.101325"
variable steps      equal ceil(abs(${strain_total}/${srate}))
variable steps      equal ceil(abs(0.3/${srate}))
variable steps      equal ceil(abs(0.3/2e-07))
variable dump_steps equal ceil(${steps}/${deform_steps})
variable dump_steps equal ceil(1500000/${deform_steps})
variable dump_steps equal ceil(1500000/50)
variable strain     equal "step*v_srate"
variable    xcm     equal xcm(all,x)
variable    ycm     equal xcm(all,y)
variable    zcm     equal xcm(all,z)
variable    xhi     equal xhi
variable    yhi     equal yhi
variable    zhi     equal zhi
variable    xlo     equal xlo
variable    ylo     equal ylo
variable    zlo     equal zlo
variable    xy      equal xy
variable    xz      equal xz
variable    yz      equal yz


print "strainrate ${strainrate}"
strainrate 200000000
print "srate ${srate}"
srate 2e-07
print "steps ${steps}"
steps 1500000
print "dump_steps ${dump_steps}"
dump_steps 30000


thermo          1000
neighbor        1.0    bin
neigh_modify    every 1 delay 5 check yes
thermo_style    custom step temp ke pe etotal lx ly lz pxx pyy pzz pxy pxz pyz
WARNING: New thermo_style command, previous thermo_modify settings will be lost (../output.cpp:904)
thermo_modify   lost warn norm yes
timestep 	    ${dt}
timestep 	    1

#======================== Energy minimization
min_style       cg
minimize        1.0e-25 1.0e-25 100 100000

CITE-CITE-CITE-CITE-CITE-CITE-CITE-CITE-CITE-CITE-CITE-CITE-CITE

Your simulation uses code contributions which should be cited:

- Type Label Framework: https://doi.org/10.1021/acs.jpcb.3c08419

@Article{Gissinger24,
 author = {Jacob R. Gissinger, Ilia Nikiforov, Yaser Afshar, Brendon Waters, Moon-ki Choi, Daniel S. Karls, Alexander Stukowski, Wonpil Im, Hendrik Heinz, Axel Kohlmeyer, and Ellad B. Tadmor},
 title = {Type Label Framework for Bonded Force Fields in LAMMPS},
 journal = {J. Phys. Chem. B},
 year =    2024,
 volume =  128,
 number =  13,
 pages =   {3282–-3297}
}

- neighbor multi command: doi:10.1016/j.cpc.2008.03.005, doi:10.1007/s40571-020-00361-2

@Article{Intveld08,
 author =  {in 't Veld, P. J. and S. J.~Plimpton and G. S. Grest},
 title =   {Accurate and Efficient Methods for Modeling Colloidal
            Mixtures in an Explicit Solvent using Molecular Dynamics},
 journal = {Comput.\ Phys.\ Commut.},
 year =    2008,
 volume =  179,
 pages =   {320--329}
}

@article{Shire2020,
 author = {Shire, Tom and Hanley, Kevin J. and Stratford, Kevin},
 title = {{DEM} Simulations of Polydisperse Media: Efficient Contact
          Detection Applied to Investigate the Quasi-Static Limit},
 journal = {Computational Particle Mechanics},
 year = {2020}
@article{Monti2022,
 author = {Monti, Joseph M. and Clemmer, Joel T. and Srivastava, 
           Ishan and Silbert, Leonardo E. and Grest, Gary S. 
           and Lechman, Jeremy B.},
 title = {Large-scale frictionless jamming with power-law particle 
          size distributions},
 journal = {Phys. Rev. E},
 volume = {106}
 issue = {3}
 year = {2022}
}

CITE-CITE-CITE-CITE-CITE-CITE-CITE-CITE-CITE-CITE-CITE-CITE-CITE

Switching to 'neigh_modify every 1 delay 0 check yes' setting during minimization
PPPM initialization ...
  using 12-bit tables for long-range coulomb (../kspace.cpp:342)
  G vector (1/distance) = 0.29202899
  grid = 32 32 60
  stencil order = 6
  estimated absolute RMS force accuracy = 2.8571248
  estimated relative force accuracy = 0.0086041466
  using double precision KISS FFT
  3d grid and FFT values/proc = 2310 256
Generated 3 of 3 mixed pair_coeff terms from arithmetic mixing rule
Neighbor list info ...
  update: every = 1 steps, delay = 0 steps, check = yes
  max neighbors/atom: 2000, page size: 100000
  master list distance cutoff = 10
  ghost atom cutoff = 10
  binsize = 5, bins = 41 22 35
  1 neighbor lists, perpetual/occasional/extra = 1 0 0
  (1) pair lj/cut/coul/long, perpetual
      attributes: half, newton on
      pair build: half/bin/newton/tri
      stencil: half/bin/3d/tri
      bin: standard
Per MPI rank memory allocation (min/avg/max) = 17.26 | 17.26 | 17.27 Mbytes
   Step          Temp          KinEng         PotEng         TotEng           Lx             Ly             Lz            Pxx            Pyy            Pzz            Pxy            Pxz            Pyz      
         0   0              0              4.2825885      4.2825885      185.0826       105.7344       172.5444       137338.95      121512.06      216523.6      -4296.0927     -4806.8582      2648.8182    
        66   0              0             -0.29790531    -0.29790531     185.0826       105.7344       172.5444      -3083.867      -2732.5982      932.45944     -920.37903     -782.45777      327.3653     
Loop time of 2.92648 on 256 procs for 66 steps with 414720 atoms

98.4% CPU use with 256 MPI tasks x no OpenMP threads

Minimization stats:
  Stopping criterion = linesearch alpha is zero
  Energy initial, next-to-last, final = 
      4.28258852997219  -0.29790530902869 -0.297905309028693
  Force two-norm initial, final = 59619.755 27.935035
  Force max component initial, final = 140.90257 0.10194492
  Final line search alpha, max atom move = 6.5855622e-06 6.7136463e-07
  Iterations, force evaluations = 66 163

MPI task timing breakdown:
Section |  min time  |  avg time  |  max time  |%varavg| %total
---------------------------------------------------------------
Pair    | 1.7588     | 1.8229     | 2.0397     |   2.2 | 62.29
Bond    | 0.045002   | 0.045734   | 0.050221   |   0.2 |  1.56
Kspace  | 0.41811    | 0.66834    | 0.73384    |   4.3 | 22.84
Neigh   | 0          | 0          | 0          |   0.0 |  0.00
Comm    | 0.23213    | 0.26902    | 0.32239    |   4.1 |  9.19
Output  | 0          | 0          | 0          |   0.0 |  0.00
Modify  | 0          | 0          | 0          |   0.0 |  0.00
Other   |            | 0.1205     |            |       |  4.12

Nlocal:           1620 ave        1620 max        1620 min
Histogram: 256 0 0 0 0 0 0 0 0 0
Nghost:           9027 ave        9045 max        9009 min
Histogram: 128 0 0 0 0 0 0 0 0 128
Neighs:         413478 ave      414651 max      412306 min
Histogram: 9 19 4 36 54 71 33 6 15 9

Total # of neighbors = 1.0585037e+08
Ave neighs/atom = 255.23333
Ave special neighs/atom = 9.4
Neighbor list builds = 0
Dangerous builds = 0
#fix             BoxRelax all box/relax tri 0.0  vmax 0.01 nreset 10 fixedpoint ${xcm} ${ycm} ${zcm}
#minimize        1.0e-25 1.0e-25 100 100# 000 1000000
#unfix           BoxRelax
dump            1 all custom 10000 0.dump element id mol type x y z
undump          1

#========================= Global setting for NPT simulation
fix             langevin all langevin ${temperature} ${temperature} ${tdamp} 32258453 zero yes
fix             langevin all langevin 300 ${temperature} ${tdamp} 32258453 zero yes
fix             langevin all langevin 300 300 ${tdamp} 32258453 zero yes
fix             langevin all langevin 300 300 100 32258453 zero yes

#======================== NPT equilibration
velocity        all create ${temperature} 1938072 mom yes rot no
velocity        all create 300 1938072 mom yes rot no
#fix             1 all npt temp ${temperature} ${temperature} ${tdamp} iso ${pressure} ${pressure} ${pdamp}
fix             1 all nph tri ${patm} ${patm} ${pdamp} fixedpoint ${xcm} ${ycm} ${zcm} flip no
fix             1 all nph tri 1 ${patm} ${pdamp} fixedpoint ${xcm} ${ycm} ${zcm} flip no
fix             1 all nph tri 1 1 ${pdamp} fixedpoint ${xcm} ${ycm} ${zcm} flip no
fix             1 all nph tri 1 1 1000 fixedpoint ${xcm} ${ycm} ${zcm} flip no
fix             1 all nph tri 1 1 1000 fixedpoint 86.4620903653394 ${ycm} ${zcm} flip no
fix             1 all nph tri 1 1 1000 fixedpoint 86.4620903653394 51.0010969797264 ${zcm} flip no
fix             1 all nph tri 1 1 1000 fixedpoint 86.4620903653394 51.0010969797264 86.2722299428767 flip no

dump            1 all custom 20000 equilibrium.*.dump element id mol type x y z
dump_modify     1 element ${ele_string}
dump_modify     1 element C C H
run             ${trelax}
run             50000
PPPM initialization ...
  using 12-bit tables for long-range coulomb (../kspace.cpp:342)
  G vector (1/distance) = 0.29202899
  grid = 32 32 60
  stencil order = 6
  estimated absolute RMS force accuracy = 2.8571248
  estimated relative force accuracy = 0.0086041466
  using double precision KISS FFT
  3d grid and FFT values/proc = 2310 256
Generated 3 of 3 mixed pair_coeff terms from arithmetic mixing rule
Per MPI rank memory allocation (min/avg/max) = 16.13 | 16.14 | 16.14 Mbytes
   Step          Temp          KinEng         PotEng         TotEng           Lx             Ly             Lz            Pxx            Pyy            Pzz            Pxy            Pxz            Pyz      
        66   300            0.89424086    -0.29790531     0.59633555     185.0826       105.7344       172.5444       1936.1799      2288.2198      5953.5316     -915.01976     -777.79983      338.82374    
      1000   299.15114      0.89171057     0.6376395      1.5293501      187.01314      106.86303      177.01804      1220.0525      746.8448       3154.4328     -172.95873     -345.24868     -142.74555    
      2000   299.55287      0.89290806     0.65918426     1.5520923      188.05951      107.29145      179.69589      244.94821     -82.016403      1205.7198     -65.899354     -182.33029     -27.678196    
      3000   299.72744      0.89342841     0.66941451     1.5628429      188.49172      107.38955      181.16577      54.398617      47.026         353.73159     -82.925292     -70.467215     -172.82379    
      4000   299.87966      0.89388215     0.67200315     1.5658853      188.63404      107.41023      181.76147     -214.53727     -353.09135      135.72612     -132.22037     -207.2471      -128.9693     
      5000   300.13398      0.89464023     0.67503084     1.5696711      188.75902      107.42384      181.99131     -77.43922      -78.869194      64.852979     -22.274742      0.46428072    -76.491933    
      6000   300.27024      0.8950464      0.6748825      1.5699289      188.79549      107.44555      181.99241      383.63696     -5.3990097      3.3259899     -70.275156     -126.42354     -41.462017    
      7000   299.91246      0.89397993     0.67615869     1.5701386      188.81427      107.43446      181.9949      -25.048655     -107.82245      34.960608      87.601957     -62.419121      54.688307    
      8000   300.06104      0.89442282     0.67734061     1.5717634      188.82598      107.42832      182.07591      167.8975      -24.243888     -37.309229     -62.910228      38.994074      62.494398    
      9000   300.9089       0.89695012     0.67295601     1.5699061      188.73905      107.41974      182.0693       72.153589      66.476698      211.93189     -30.833636      80.321607      101.24745    
     10000   299.1125       0.8915954      0.67502447     1.5666199      188.85254      107.44021      182.13895     -139.09378      28.0463       -81.055427     -123.88399      20.714478      53.818667    
     11000   299.73874      0.89346209     0.67463632     1.5680984      188.85563      107.4577       182.05601     -52.44521      -137.69641      119.05594     -102.68106      14.885307      47.995424    
     12000   300.54321      0.89586005     0.6731105      1.5689706      188.73718      107.38983      181.96338      487.05004      230.78493      157.51128     -99.085571     -68.115429     -112.81114    
     13000   300.7302       0.89641743     0.67319053     1.569608       188.81464      107.4294       182.03138      344.16048      109.36942      67.428003      32.131035      15.40293       16.219627    
     14000   299.64481      0.8931821      0.67600509     1.5691872      188.82858      107.42303      182.0403      -15.725563     -210.59616     -16.844477     -107.73402      51.585281      94.790899    
     15000   299.6498       0.89319697     0.67313426     1.5663312      188.70211      107.4301       182.0828      -4.0498255     -44.966986     -13.421077     -52.83274       85.18994      -109.22326    
     16000   299.75297      0.89350452     0.67572065     1.5692252      188.80339      107.48082      182.03883     -33.770373     -51.871867     -114.19493     -155.98755     -48.297062      66.720151    
     17000   300.7842       0.89657842     0.67674362     1.573322       188.77408      107.4617       182.0194       30.153148      19.923928     -47.469101      314.73964      84.432914      71.432204    
     18000   299.95743      0.89411397     0.67370981     1.5678238      188.85257      107.42405      181.96838     -16.355045     -160.03674     -23.883235     -67.564534      19.986247      16.884298    
     19000   300.6516       0.89618314     0.6738866      1.5700697      188.86327      107.40668      182.03885      42.00733       95.5482       -99.154363      24.75801      -51.259036      100.29495    
     20000   300.0387       0.8943562      0.67727334     1.5716295      188.85142      107.41433      182.17154     -225.31188      196.32153      68.003502     -99.723996     -98.949634     -13.443621    
     21000   299.35761      0.89232603     0.67527299     1.567599       188.75718      107.43211      182.09331      171.64505      59.034283     -99.925016     -129.59108     -21.36674       73.108423    
     22000   300.21501      0.89488177     0.67616416     1.5710459      188.82344      107.46608      182.06235     -50.43781      -69.661105     -22.257982     -69.504324     -31.68908      -52.991662    
     23000   299.90418      0.89395525     0.67765528     1.5716105      188.83872      107.44896      182.0019      -79.306571     -127.14328      165.10895      60.60756      -111.63648     -39.215666    
     24000   299.5457       0.89288668     0.67699725     1.5698839      188.76205      107.45259      181.97275      30.888921     -89.085257      98.740728     -69.935359      193.27457      76.144989    
     25000   300.51495      0.89577584     0.67560498     1.5713808      188.85696      107.43642      182.01277     -280.46663      302.17542     -49.355684      8.6724844      73.369155     -132.18498    
     26000   300.28399      0.89508739     0.67802799     1.5731154      188.71562      107.47925      182.11695      92.230348     -230.25205     -145.2457       85.13672      -58.231816     -46.888861    
     27000   299.78196      0.89359093     0.67606666     1.5696576      188.65417      107.47671      182.02059      45.233385      226.17864     -132.49265      41.751036     -11.240277      87.982763    
     28000   300.15416      0.89470038     0.67667597     1.5713764      188.81634      107.48278      182.03842     -232.01599     -160.85624     -59.98015       80.085046     -81.360134     -60.039095    
     29000   300.19595      0.89482494     0.67646613     1.5712911      188.80748      107.43325      182.06071      413.36773      392.57377      44.482562     -63.121527      142.59481      20.749136    
     30000   300.28454      0.89508903     0.67758708     1.5726761      188.88456      107.45531      182.10681      77.44174       24.263186     -215.34584      104.42509     -141.75849      35.224417    
     31000   300.04796      0.89438382     0.67604415     1.570428       188.76966      107.46783      181.95507      297.449       -3.7867571      31.679694     -113.70696     -14.359561      52.543841    
     32000   299.15155      0.8917118      0.67520859     1.5669204      188.79829      107.46932      182.04585     -193.0329       160.38815     -90.20136       271.07091      74.546065      29.688485    
     33000   300.43469      0.89553658     0.67799139     1.573528       188.73962      107.47784      181.99001      153.16284     -23.011525      34.966703      177.78345      112.74231     -14.351027    
     34000   300.21034      0.89486784     0.67593208     1.5707999      188.75871      107.43895      181.86502     -29.377344      62.988097     -85.707418     -6.4276547     -39.832106     -80.341006    
     35000   300.22796      0.89492036     0.67691876     1.5718391      188.78578      107.46085      181.97074     -130.62944     -67.813544     -37.50117      -145.4821       36.352644     -34.780664    
     36000   299.99761      0.89423373     0.67548312     1.5697169      188.8799       107.47626      181.95938     -92.069443      148.18126      3.6394708     -62.865255      63.651672     -6.9918236    
     37000   300.32926      0.89522232     0.67565709     1.5708794      188.71674      107.41581      181.99197     -10.515232     -80.855973     -164.41544     -158.96538     -34.476644      37.082086    
     38000   300.10071      0.89454106     0.67686614     1.5714072      188.8243       107.41172      182.09423     -333.83317     -165.49437     -76.4157       -309.22081      40.405622      94.251773    
     39000   300.54805      0.89587449     0.67488057     1.5707551      188.84142      107.39297      182.00915     -83.542186     -110.58917     -102.15268     -210.75134      46.491518      82.887364    
     40000   300.02766      0.8943233      0.67456454     1.5688878      188.76906      107.41092      182.08547      197.7301      -87.467079     -138.14541      72.326025     -12.983386      83.04631     
     41000   300.42726      0.89551442     0.67598232     1.5714967      188.8197       107.44536      182.04581      153.64128      230.66991      88.626262     -123.76365      39.31764      -86.438187    
     42000   300.18925      0.89480498     0.67377769     1.5685827      188.74709      107.43684      182.02927      160.03076     -13.834525     -47.846257     -29.906398     -6.9277437     -27.164733    
     43000   300.16019      0.89471836     0.67499552     1.5697139      188.78362      107.45027      182.00389     -119.81456     -128.77371      52.60871      -70.714371     -115.9509       118.55425    
     44000   299.71975      0.8934055      0.67454688     1.5679524      188.681        107.47578      182.05346      39.267152     -187.85755      113.3157       23.366737     -47.548159      23.528179    
     45000   299.91098      0.89397551     0.67675785     1.5707334      188.77461      107.43         181.94276     -299.36531     -288.10395     -170.12476     -251.58467     -71.353711      105.09946    
     46000   299.69575      0.89333396     0.67387092     1.5672049      188.72585      107.40033      182.01744      68.456181     -310.73962      139.98317      104.05156     -59.496336     -18.486125    
     47000   299.84822      0.89378842     0.67416485     1.5679533      188.74092      107.42026      182.04689      247.18481      373.24632      13.115169      23.30118       35.417114     -97.874005    
     48000   299.85234      0.8938007      0.67587965     1.5696803      188.82761      107.42563      182.03499      75.509312     -86.064447      38.498771      8.9665731     -25.924403      167.59193    
     49000   299.61266      0.89308628     0.67616382     1.5692501      188.74792      107.4048       182.03495     -59.996566      190.05036     -258.65902      32.939656      44.501911     -75.558155    
     50000   299.54629      0.89288844     0.6755794      1.5684678      188.80866      107.44838      181.92888     -158.22627      201.49742     -41.826342     -0.2396972     -155.4278       2.9367824    
     50066   300.15078      0.8946903      0.67420195     1.5688923      188.82297      107.46697      181.92551     -10.655466      64.828491      210.97228     -40.857641     -131.48732      53.938005    
Loop time of 770.473 on 256 procs for 50000 steps with 414720 atoms

Performance: 5.607 ns/day, 4.280 hours/ns, 64.895 timesteps/s, 26.913 Matom-step/s
99.4% CPU use with 256 MPI tasks x no OpenMP threads

MPI task timing breakdown:
Section |  min time  |  avg time  |  max time  |%varavg| %total
---------------------------------------------------------------
Pair    | 337.91     | 342.64     | 352.56     |  11.3 | 44.47
Bond    | 15.209     | 15.422     | 16.025     |   2.9 |  2.00
Kspace  | 107.08     | 118.88     | 126.25     |  38.5 | 15.43
Neigh   | 166.52     | 171.35     | 175.21     |  17.3 | 22.24
Comm    | 79.252     | 91.231     | 108.22     |  76.9 | 11.84
Output  | 0.019733   | 0.037933   | 0.052465   |   4.8 |  0.00
Modify  | 19.929     | 26.005     | 29.669     |  52.2 |  3.38
Other   |            | 4.901      |            |       |  0.64

Nlocal:           1620 ave        1644 max        1596 min
Histogram: 2 7 20 45 52 58 38 24 8 2
Nghost:        8469.58 ave        8581 max        8380 min
Histogram: 11 17 40 44 42 43 27 23 6 3
Neighs:         383148 ave      390961 max      377327 min
Histogram: 13 24 28 53 45 45 21 18 7 2

Total # of neighbors = 98085975
Ave neighs/atom = 236.51132
Ave special neighs/atom = 9.4
Neighbor list builds = 6916
Dangerous builds = 1
unfix           1
undump          1

variable	yzv 	equal	yz
variable	yzzo	equal	${yzv}
variable	yzzo	equal	-6.30576165965616

#========================DEFORMATION
reset_timestep  0
dump            1 all custom ${dump_steps} shear.*.dump element id mol type x y z
dump            1 all custom 30000 shear.*.dump element id mol type x y z
dump_modify     1 element ${ele_string}
dump_modify     1 element C C H
compute         cc1 all chunk/atom molecule
compute         myChunk all com/chunk cc1

fix             1 all nph x ${patm} ${patm} ${pdamp}  y ${patm} ${patm} ${pdamp} z ${patm} ${patm} ${pdamp} xz ${patm} ${patm} ${pdamp} fixedpoint ${xcm} ${ycm} ${zcm}
fix             1 all nph x 1 ${patm} ${pdamp}  y ${patm} ${patm} ${pdamp} z ${patm} ${patm} ${pdamp} xz ${patm} ${patm} ${pdamp} fixedpoint ${xcm} ${ycm} ${zcm}
fix             1 all nph x 1 1 ${pdamp}  y ${patm} ${patm} ${pdamp} z ${patm} ${patm} ${pdamp} xz ${patm} ${patm} ${pdamp} fixedpoint ${xcm} ${ycm} ${zcm}
fix             1 all nph x 1 1 1000  y ${patm} ${patm} ${pdamp} z ${patm} ${patm} ${pdamp} xz ${patm} ${patm} ${pdamp} fixedpoint ${xcm} ${ycm} ${zcm}
fix             1 all nph x 1 1 1000  y 1 ${patm} ${pdamp} z ${patm} ${patm} ${pdamp} xz ${patm} ${patm} ${pdamp} fixedpoint ${xcm} ${ycm} ${zcm}
fix             1 all nph x 1 1 1000  y 1 1 ${pdamp} z ${patm} ${patm} ${pdamp} xz ${patm} ${patm} ${pdamp} fixedpoint ${xcm} ${ycm} ${zcm}
fix             1 all nph x 1 1 1000  y 1 1 1000 z ${patm} ${patm} ${pdamp} xz ${patm} ${patm} ${pdamp} fixedpoint ${xcm} ${ycm} ${zcm}
fix             1 all nph x 1 1 1000  y 1 1 1000 z 1 ${patm} ${pdamp} xz ${patm} ${patm} ${pdamp} fixedpoint ${xcm} ${ycm} ${zcm}
fix             1 all nph x 1 1 1000  y 1 1 1000 z 1 1 ${pdamp} xz ${patm} ${patm} ${pdamp} fixedpoint ${xcm} ${ycm} ${zcm}
fix             1 all nph x 1 1 1000  y 1 1 1000 z 1 1 1000 xz ${patm} ${patm} ${pdamp} fixedpoint ${xcm} ${ycm} ${zcm}
fix             1 all nph x 1 1 1000  y 1 1 1000 z 1 1 1000 xz 1 ${patm} ${pdamp} fixedpoint ${xcm} ${ycm} ${zcm}
fix             1 all nph x 1 1 1000  y 1 1 1000 z 1 1 1000 xz 1 1 ${pdamp} fixedpoint ${xcm} ${ycm} ${zcm}
fix             1 all nph x 1 1 1000  y 1 1 1000 z 1 1 1000 xz 1 1 1000 fixedpoint ${xcm} ${ycm} ${zcm}
fix             1 all nph x 1 1 1000  y 1 1 1000 z 1 1 1000 xz 1 1 1000 fixedpoint 85.02833104526 ${ycm} ${zcm}
fix             1 all nph x 1 1 1000  y 1 1 1000 z 1 1 1000 xz 1 1 1000 fixedpoint 85.02833104526 49.325075314052 ${zcm}
fix             1 all nph x 1 1 1000  y 1 1 1000 z 1 1 1000 xz 1 1 1000 fixedpoint 85.02833104526 49.325075314052 86.2722299428765
#fix             1 all nph tri ${patm} ${patm} ${pdamp}
fix             2 all ave/time 2 100 ${thermo} v_strain v_sxx v_syy v_szz v_sxz v_syz v_sxy v_pe file output.dat
fix             2 all ave/time 2 100 5000 v_strain v_sxx v_syy v_szz v_sxz v_syz v_sxy v_pe file output.dat
fix             6 all ave/time 2 100 ${thermo} c_myChunk[*] file center.dat mode vector
fix             6 all ave/time 2 100 5000 c_myChunk[*] file center.dat mode vector
fix             7 all print ${thermo} "${xhi} ${xlo} ${yhi} ${ylo} ${zhi} ${zlo} ${xy} ${xz} ${yz}" screen no file box_parameters.dat
fix             7 all print 5000 "${xhi} ${xlo} ${yhi} ${ylo} ${zhi} ${zlo} ${xy} ${xz} ${yz}" screen no file box_parameters.dat


#======================== load
fix             3 all deform 1 xy erate ${srate} units box remap x flip no
fix             3 all deform 1 xy erate 2e-07 units box remap x flip no
run             ${steps}
run             1500000
PPPM initialization ...
  using 12-bit tables for long-range coulomb (../kspace.cpp:342)
  G vector (1/distance) = 0.29202899
  grid = 32 32 60
  stencil order = 6
  estimated absolute RMS force accuracy = 3.4436319
  estimated relative force accuracy = 0.010370395
  using double precision KISS FFT
  3d grid and FFT values/proc = 2310 256
Generated 3 of 3 mixed pair_coeff terms from arithmetic mixing rule
Per MPI rank memory allocation (min/avg/max) = 16.4 | 16.41 | 16.41 Mbytes
   Step          Temp          KinEng         PotEng         TotEng           Lx             Ly             Lz            Pxx            Pyy            Pzz            Pxy            Pxz            Pyz      
         0   300.15078      0.8946903      0.67420195     1.5688923      188.82297      107.46697      181.92551     -10.655466      64.828491      210.97228     -40.857641     -131.48732      53.938005    
      1000   299.70907      0.89337366     0.67841424     1.5717879      188.82522      107.46235      182.05007     -41.87172       33.344603      32.671156      82.609267     -16.037235     -36.153779    
      2000   300.45483      0.89559663     0.67545984     1.5710565      188.9024       107.41817      182.09448      34.495543      56.60737      -41.683186      36.492351     -8.5801953      59.150141    
      3000   300.36581      0.89533126     0.67602516     1.5713564      188.89274      107.42322      182.10056     -33.358968      38.968904      254.80035      88.752685      32.453073      65.288404    
      4000   300.27774      0.89506875     0.67570659     1.5707753      188.78047      107.46395      182.09051     -204.53103     -296.97974     -116.54809     -250.27018     -118.98001      1.8915012    
      5000   299.59199      0.89302466     0.67537404     1.5683987      188.7794       107.47192      181.9832      -89.06901      -420.998        33.072594      2.8958439     -55.042639     -107.91613    
      6000   300.1398       0.89465759     0.67378222     1.5684398      188.73541      107.47034      181.92826     -41.764683     -6.4190186     -0.77754598    -287.88181     -155.0571       26.226173    
      7000   299.98692      0.89420188     0.67558961     1.5697915      188.78776      107.46865      181.90409     -432.05683      31.92496       87.962554      68.31546      -0.64160457    -47.442556    
      8000   300.01679      0.89429089     0.67491559     1.5692065      188.78568      107.44775      182.04407     -173.55219      103.8878      -87.32351       32.512145     -139.01527      69.63324     
      9000   299.8945       0.8939264      0.67630801     1.5702344      188.76607      107.43472      182.00779     -382.31353      109.02772      48.619893      7.9828754      29.063025     -14.149863    
     10000   300.22614      0.89491495     0.67830306     1.573218       188.81793      107.42462      182.11408     -36.896749      131.6961      -62.618863     -88.624107     -69.951965      4.2727416    
     11000   300.27745      0.89506788     0.67423986     1.5693077      188.84902      107.4081       182.09496      326.99889      159.96386     -4.3434598     -9.0859914     -27.909008     -63.579886    
     12000   300.25042      0.8949873      0.67484806     1.5698354      188.74233      107.43341      181.99297     -53.252931      212.39056     -14.45013      -243.04749      31.236119     -114.50865    
     13000   300.0774       0.89447156     0.67363982     1.5681114      188.7275       107.41887      182.1573       138.84757      204.64221     -201.26543     -40.740882      80.622929      31.211114    
     14000   300.20638      0.89485604     0.67524362     1.5700997      188.80816      107.43766      182.00548      10.805373      255.74696      64.484851     -332.49858     -43.31079       3.9130729    
     15000   299.65409      0.89320976     0.67577579     1.5689855      188.99176      107.42301      182.18742     -6.567397      -189.66579     -161.22722     -122.85655      157.83111      247.0882     
     16000   300.40417      0.89544561     0.67830828     1.5737539      188.83521      107.43241      182.13873      107.23889     -135.72218     -76.64333      -39.716846      44.268308      37.780691    
     17000   300.12134      0.89460254     0.67687984     1.5714824      188.85796      107.45333      182.08247     -286.28845     -240.79282     -80.056778     -55.30087      -5.9765922      42.602638    
     18000   301.07278      0.8974386      0.67399951     1.5714381      188.79645      107.44824      181.91837      62.182478     -185.15695      8.063678      -128.97681      6.4934703     -142.01095    
     19000   300.78432      0.89657876     0.67642505     1.5730038      188.7896       107.38436      182.00566      113.80691      71.918084     -109.34393     -314.02409     -5.8032177      0.59622014   
     20000   300.22849      0.89492193     0.67717386     1.5720958      188.72834      107.46309      182.13807     -130.37369     -279.60543      233.99394     -226.51494     -21.312268     -24.941588    
     21000   299.84009      0.89376419     0.67638833     1.5701525      188.76763      107.36948      182.06515     -202.07285     -36.75146      -161.18405     -465.01314      25.804258      83.041031    
     22000   299.81766      0.89369733     0.67389051     1.5675878      188.7847       107.45162      181.94721     -209.40514     -60.345418     -6.6595403     -322.47047     -43.211611      84.661112    
     23000   300.60006      0.89602951     0.67571873     1.5717482      188.74095      107.42424      181.92227     -185.15294      218.52371     -122.74768     -346.87116      19.387502      33.648799    
     24000   300.18693      0.89479807     0.67545665     1.5702547      188.77653      107.4725       182.16294      234.27757     -29.057333     -18.068428     -173.52644     -8.340178       52.673932    
     25000   299.98202      0.89418728     0.67447786     1.5686651      188.74979      107.46086      182.11273     -167.75101      50.673494     -128.60061     -105.88632      160.46016      81.420985    
     26000   299.99781      0.89423433     0.6771533      1.5713876      188.77004      107.44462      181.98715     -236.38274     -196.10878      125.8587      -314.30309      24.647446      20.119768    
     27000   299.98921      0.89420868     0.67429159     1.5685003      188.7413       107.44218      182.04569     -342.32012     -211.06869     -38.799109     -322.63019     -40.893031      148.93304    
     28000   300.73262      0.89642465     0.67559908     1.5720237      188.82948      107.40851      181.98096      187.12512      34.623385     -38.673813     -373.18037      62.907439     -201.17738    
     29000   300.06207      0.89442588     0.67600154     1.5704274      188.78325      107.45922      181.98036      40.683508     -234.42122      16.90667      -395.51839     -44.30001       80.559886    
     30000   300.02041      0.8943017      0.67541195     1.5697137      188.87221      107.44362      182.10361      102.41727      302.45682      48.455882     -301.96603     -6.2946633      104.36762    
     31000   300.02713      0.89432173     0.67478221     1.5691039      188.78249      107.4597       182.07956     -17.376279     -123.89901     -88.855413     -328.16647     -12.247813     -64.575845    
     32000   300.05248      0.89439729     0.67228982     1.5666871      188.80277      107.45522      182.0177      -84.569304     -240.35631     -54.12429      -384.90659      10.602417     -6.7487264    
     33000   299.8366       0.89375378     0.67280986     1.5665636      188.83266      107.46676      181.95753     -137.24192      211.7716      -22.537123     -396.51796      80.310132      86.886908    
     34000   300.286        0.89509337     0.67623817     1.5713315      188.81096      107.37146      182.11408     -279.31062     -119.12237     -79.602484     -621.61294     -125.7632       16.010822    
     35000   300.13032      0.8946293      0.67440265     1.5690319      188.85455      107.38775      182.12573     -88.290983     -22.08155      -43.111782     -303.85475     -190.70206      63.273147    
     36000   300.16256      0.89472541     0.67516932     1.5698947      188.75658      107.41012      182.07992     -35.636827     -59.998955     -87.91309      -511.64432     -131.22598     -140.78309    
     37000   300.20288      0.8948456      0.67574395     1.5705896      188.74363      107.41308      182.1576      -263.08806      173.99275     -231.71232     -415.88648     -113.9779      -64.321022    
     38000   299.75153      0.89350021     0.67481232     1.5683125      188.82814      107.38335      182.04548      11.713591     -123.31465     -103.03383     -438.39634      3.1455794      99.114676    
     39000   300.24231      0.89496314     0.67597312     1.5709363      188.86723      107.39279      182.05612      80.595746     -170.40531      238.50973     -438.72625     -1.6034518     -62.998432    
     40000   299.24657      0.89199503     0.67707226     1.5690673      188.9439       107.4037       182.13965      192.94507      63.081161     -51.959574     -615.18591     -29.031438     -67.530362    
     41000   300.36599      0.89533179     0.67532287     1.5706547      188.87822      107.44247      182.08774     -384.5207       22.715731     -49.075718     -406.58383     -91.283407      20.673747    
     42000   300.49842      0.89572655     0.67718713     1.5729137      188.83611      107.41589      182.12421     -97.6679        207.04167      13.790605     -589.20794     -34.730807      45.505236    
     43000   299.95351      0.89410229     0.6759097      1.570012       188.85631      107.43094      182.19909     -70.605594      255.4092      -79.743312     -666.50454      4.8925848      90.801926    
     44000   299.34895      0.8923002      0.67594643     1.5682466      188.86873      107.42916      182.00228      186.19859     -57.027497     -115.50889     -498.04633     -70.173926      65.07179     
     45000   300.2839       0.89508711     0.67605554     1.5711427      188.84799      107.43013      182.04263     -78.198878     -43.806924     -8.4392937     -471.85533     -15.090873     -62.336196    
     46000   300.0766       0.89446919     0.67519403     1.5696632      188.89073      107.38074      182.0015      -38.579231      159.58341      30.203054     -763.22383     -100.0787       43.220709    
     47000   299.73557      0.89345265     0.67512221     1.5685749      188.88942      107.42096      182.04568      111.31763     -67.541657      142.04685     -485.27225     -165.36371     -87.573507    
     48000   300.04774      0.89438315     0.6771199      1.5715031      188.87036      107.43397      181.99694      41.733163      33.171828     -346.95295     -688.03867     -44.139824     -11.197295    
     49000   300.31616      0.89518326     0.67560127     1.5707845      188.7485       107.42895      182.00668      69.561034      293.95569     -151.70469     -684.9068       88.720001      47.805062    
     50000   299.38519      0.89240823     0.67751313     1.5699214      188.75479      107.45186      182.07565      9.2025316     -145.39415     -192.83407     -475.49853      61.59862      -34.914153    
     51000   299.23474      0.89195976     0.67515228     1.567112       188.82772      107.41612      182.05077     -127.19244     -130.40688      59.360754     -755.60265     -36.212068     -15.991345    
     52000   300.06581      0.89443703     0.67640981     1.5708468      188.83325      107.44299      182.07245      177.01645      122.73663      49.199206     -628.46354      72.940846     -78.721384    
     53000   300.59859      0.89602514     0.6763186      1.5723437      188.82403      107.46008      182.03066     -40.939782      138.31759      162.03054     -308.92514      62.224799      38.375906    
     54000   300.08076      0.89448158     0.67514041     1.569622       188.75942      107.40095      182.09485     -101.05641     -25.245452      133.85742     -470.11943      113.95051     -110.43192    
     55000   300.78358      0.89657657     0.67701468     1.5735912      188.92998      107.40214      181.97337      125.10696      293.05367      55.079242     -602.70186      32.181976     -102.25882    
     56000   299.99344      0.89422132     0.67874475     1.5729661      188.81331      107.3966       182.08565      104.72232     -129.71012     -258.13144     -573.05761      47.243505     -26.890309    
     57000   300.01812      0.89429487     0.67503795     1.5693328      188.84711      107.42964      182.04149      247.59931     -43.728543      84.265597     -657.25964     -202.45915      128.1715     
     58000   300.30688      0.89515562     0.67660853     1.5717642      188.7649       107.45219      182.18125     -158.24633     -66.518868     -111.00826     -712.24684     -139.45306      2.2784417    
     59000   299.55897      0.89292624     0.6752758      1.568202       188.8955       107.44926      182.06796     -79.943234      465.01783      7.7474377     -685.29893      94.996744      12.840768    
     60000   300.12836      0.89462348     0.67562745     1.5702509      188.92144      107.40241      182.15358     -302.58846     -187.314       -190.18571     -715.34594      137.30603      93.421995    
     61000   299.30844      0.89217944     0.67376077     1.5659402      188.80343      107.42474      182.04693     -97.334831      303.00971     -1.5834322     -593.80712      0.8004519     -6.8756775    
     62000   300.3482       0.89527879     0.67571476     1.5709935      188.86692      107.3907       182.10064      227.56498      121.69912      132.5145      -655.7729      -182.88879      112.17074    
     63000   299.94422      0.89407459     0.67539702     1.5694716      188.92187      107.44469      182.00219     -78.637068      1.2677043      89.843394     -763.54095      9.2570533      52.455393    
     64000   301.05914      0.89739794     0.67745896     1.5748569      188.95164      107.43111      182.06673      70.754005      27.624523     -32.067971     -646.48818     -105.66441     -27.625247    
     65000   299.77233      0.89356223     0.67467256     1.5682348      188.93722      107.35604      182.07867      332.12546      322.91567      223.74907     -526.65226      121.29856      23.668055    
     66000   299.85117      0.89379723     0.67669433     1.5704916      188.90584      107.44862      182.16674      146.46912     -68.175011      200.93282     -650.02005     -65.578385     -47.571969    
     67000   300.20963      0.89486571     0.67405859     1.5689243      188.82809      107.42903      182.12632     -375.8867       19.999769     -145.73434     -794.38627      106.6439      -128.06917    
     68000   300.09223      0.89451577     0.67483606     1.5693518      188.90855      107.41853      181.97586     -262.0293       201.37632     -166.27862     -735.99036     -114.72564     -49.649927    
     69000   300.33925      0.89525209     0.67613511     1.5713872      188.94887      107.39209      181.94806     -269.63406      241.32589      137.30933     -673.0797       71.437284     -110.08672    
     70000   299.95609      0.89410997     0.67628635     1.5703963      188.9631       107.42961      182.11418     -245.34356     -443.16463      93.191914     -625.55904      26.787848     -79.137585    
     71000   299.31736      0.89220603     0.67772451     1.5699305      188.86354      107.43031      182.15185     -95.196174     -28.08972      -274.64449     -753.16134      40.336313      141.29123    
     72000   299.60902      0.89307541     0.67732544     1.5704009      188.9576       107.44426      181.96277      202.36047      53.380317      62.741158     -918.42328      57.973302      52.654345    
     73000   300.34378      0.89526559     0.67454046     1.569806       188.86106      107.439        181.97663      7.4055666     -305.41828      74.475791     -760.25874      18.17513      -59.516284    
     74000   300.12184      0.89460404     0.6785308      1.5731348      188.98992      107.40963      182.06934      45.385262     -18.834175     -47.434698     -817.70709      20.697804     -43.704222    
     75000   300.33481      0.89523888     0.6778378      1.5730767      189.03392      107.42666      182.15232     -65.961787      216.08201      72.663206     -885.86394     -86.431435     -97.101702    
     76000   300.2948       0.89511959     0.6765325      1.5716521      188.99177      107.43331      182.11264     -237.60215      350.14659     -15.145078     -972.16729     -46.445601      84.430469    
     77000   299.68963      0.89331571     0.67629574     1.5696114      188.9445       107.46596      182.08123      65.514351     -148.58644     -160.18153     -981.96652     -46.933547     -1.2597533    
     78000   299.6146       0.89309206     0.67646063     1.5695527      188.88289      107.42568      182.01192     -121.46926     -259.74522     -77.377553     -952.88843     -36.009803     -35.821675    
     79000   299.64534      0.89318369     0.67600249     1.5691862      188.88906      107.39291      182.0674      -60.087194      97.54924      -76.288948     -853.49855      23.451141     -70.708868    
     80000   300.66569      0.89622515     0.67618082     1.572406       189.00781      107.41297      182.03031     -19.825607      299.14003      126.03162     -1003.1617      70.752648      12.246834    
     81000   300.14528      0.8946739      0.67610519     1.5707791      188.96719      107.38301      182.09664     -152.63115      571.34375      96.249264     -1051.4251      74.298046      4.8743565    
     82000   299.71952      0.89340479     0.6771687      1.5705735      188.88387      107.37273      182.03689     -85.657452     -24.501183     -83.464628     -844.12249      44.878359     -202.83702    
     83000   300.21219      0.89487336     0.67860014     1.5734735      188.98082      107.40426      182.22114     -238.01705      102.98662     -65.230663     -793.34327      161.78747      70.6919      
     84000   300.53252      0.89582819     0.67983908     1.5756673      188.98148      107.40895      182.18704      98.145193      40.745787      141.79897     -890.99331     -84.739601      27.895378    
     85000   299.57075      0.89296135     0.67915252     1.5721139      189.04457      107.39508      182.00491     -92.083291      108.32966      381.26274     -1015.6639      82.74915      -56.9191      
     86000   300.56651      0.89592953     0.6789065      1.574836       188.93721      107.41707      182.09455      129.99788     -66.941983      261.08476     -1053.5195     -139.13016     -89.697363    
     87000   299.68471      0.89330103     0.6758988      1.5691998      188.94986      107.35217      182.09133      67.023279      336.10884     -16.236923     -1075.7741      96.158403      165.15786    
     88000   299.92794      0.89402607     0.67611078     1.5701369      189.02514      107.44135      182.14328     -326.41603     -288.62075      31.806713     -983.64993      62.210365     -130.04443    
     89000   300.12797      0.89462231     0.67870171     1.573324       188.94481      107.45355      181.9794       428.38348     -61.048632      4.328026      -1309.1324     -99.701083     -136.99314    
     90000   299.87569      0.89387031     0.67901975     1.5728901      188.9553       107.43797      182.08535      67.514426      109.5061      -91.20373      -886.48589      120.78902     -73.610695    
     91000   300.33371      0.89523557     0.67732011     1.5725557      188.9776       107.4536       182.09387      1.732265      -184.10536      120.08614     -1010.8893      2.7700996      15.567993    
     92000   300.27585      0.89506311     0.6752305      1.5702936      189.05062      107.40757      182.09239      119.98176      76.379192      20.563197     -846.24593     -110.46529     -18.589904    
     93000   299.93009      0.89403248     0.6772323      1.5712648      189.01167      107.39106      182.14784     -61.727314      127.85483     -153.75646     -1079.7651      39.360998     -50.445558    
     94000   299.40086      0.89245495     0.67620556     1.5686605      189.06031      107.39753      182.13932      27.605138      214.26814     -23.553833     -1002.254      -122.64943      40.079742    
     95000   299.92583      0.89401978     0.67752843     1.5715482      189.00125      107.41272      182.14586      47.923889      58.496638      138.72582     -1124.5865      89.09439       162.39561    
     96000   300.37749      0.89536608     0.67663428     1.5720004      189.03545      107.44962      182.12361     -20.763592     -107.69299     -25.695457     -1108.4687      4.8701305     -92.188705    
     97000   299.54006      0.89286988     0.67860171     1.5714716      189.00808      107.44663      182.01829      168.99901     -19.584819      106.73284     -804.72942      162.75219      61.880687    
     98000   300.63378      0.89613002     0.6787949      1.5749249      189.00319      107.46502      182.06454     -120.622       -121.73443     -3.6409935     -1166.7219      71.37652       61.748411    
     99000   300.33922      0.895252       0.67879039     1.5740424      189.08405      107.46102      182.12696      82.482169      16.39157       123.81165     -1110.0784      127.38275      33.461634    
    100000   299.92161      0.89400718     0.67761082     1.571618       189.02053      107.43578      182.09415      280.68524      137.93205     -36.529753     -1047.8474      5.3779086     -4.7951429    
    101000   299.42871      0.89253795     0.67842338     1.5709613      189.14375      107.44633      182.00525     -47.361773      2.5789624      288.50628     -1336.4479      84.349174     -3.9041865    
    102000   299.86765      0.89384636     0.67678759     1.5706339      189.084        107.42767      182.04008     -312.41317     -20.357511      170.55835     -1190.0655      27.735769      55.995749    
    103000   299.87819      0.89387778     0.67622461     1.5701024      189.11296      107.42578      182.15563     -246.41923     -23.935411      49.427832     -1077.7541     -19.800764     -2.7054842    
    104000   299.51636      0.89279923     0.67902383     1.5718231      189.14771      107.43855      182.17854      139.25548      119.51257      6.4448931     -1433.9517      91.882733      119.08428    
    105000   299.6157       0.89309535     0.67706464     1.57016        189.10444      107.43475      182.11394     -158.6358      -196.48437     -202.47184     -1283.4624     -26.444211      58.223025    
    106000   299.90236      0.89394982     0.67795407     1.5719039      189.1425       107.42852      182.04166     -27.220726      48.78793       466.89798     -1217.0308     -185.03691      78.969759    
    107000   300.06589      0.89443727     0.67689605     1.5713333      189.1257       107.45347      182.01959     -349.84809     -408.7386       29.584851     -1196.8653     -4.2532327     -14.83742     
    108000   299.98454      0.89419477     0.67740287     1.5715976      189.16952      107.4319       182.13868      141.80631      117.8915       144.39375     -1267.51        33.569071     -11.327833    
    109000   300.08524      0.89449495     0.67646961     1.5709646      189.11044      107.41632      182.11062      90.034003      169.28223      17.601022     -1127.024       2.4611916      9.290115     
    110000   300.25577      0.89500326     0.67934839     1.5743517      189.07342      107.43362      182.23656      199.08652     -103.18304     -76.875743     -1132.0477     -30.650656     -153.68098    
    111000   300.35374      0.89529529     0.67615782     1.5714531      189.08654      107.42337      182.18478     -198.65453      175.18281     -37.108195     -1179.1386     -75.405066     -130.76418    
    112000   299.99151      0.89421556     0.67695459     1.5711701      189.15942      107.42707      182.12716      107.18172      1.3989715      224.93714     -1070.152       109.42654      71.89953     
    113000   300.09092      0.89451187     0.67630505     1.5708169      189.12007      107.42508      181.98758     -247.89933     -9.8587518     -21.865821     -1372.4366      119.79727      29.99754     
    114000   300.71755      0.89637972     0.67566773     1.5720475      189.09302      107.39426      182.09132      143.8993      -146.73716     -51.283403     -1395.6908     -1.8861927      49.201768    
    115000   299.81774      0.89369757     0.6772948      1.5709924      189.15866      107.42113      182.14227     -175.67477     -31.258787      73.841757     -1430.653      -63.86874       80.241667    
    116000   300.08461      0.89449307     0.67729909     1.5717922      189.24125      107.41774      182.1173       185.78285     -79.559095     -141.86424     -1158.9824      20.656793      128.74327    
    117000   299.95199      0.89409775     0.68009096     1.5741887      189.24971      107.43826      182.20798      53.442375      6.1240136     -125.52387     -1448.4392     -3.9884471     -35.841905    
    118000   300.45179      0.89558755     0.67839182     1.5739794      189.22353      107.437        182.21075     -115.96836     -63.268917     -214.93047     -1391.937      -120.96266      171.82891    
    119000   299.94532      0.89407786     0.67769705     1.5717749      189.14176      107.44812      182.19242     -330.31944     -189.19477     -45.720459     -1181.8256     -120.39659     -127.07937    
    120000   300.11894      0.8945954      0.67889345     1.5734889      189.2314       107.42821      182.04627      111.26515     -169.38394      93.774831     -1215.0292      100.65645     -20.758799    
    121000   299.64354      0.89317833     0.67830272     1.571481       189.22827      107.44922      182.18801     -300.44361      29.17154       59.789979     -1551.6381      76.421809      101.84072    
    122000   299.7748       0.89356958     0.67956699     1.5731366      189.27838      107.44122      182.13885     -127.28038      269.43413     -84.302527     -1259.8255      95.439901     -116.22856    
    123000   299.73252      0.89344356     0.67831656     1.5717601      189.18095      107.44315      182.09409      252.93591      49.778301     -21.762931     -1446.5334     -60.185289     -27.474268    
    124000   300.30605      0.89515314     0.67757921     1.5727324      189.09674      107.45508      182.24378      76.044792     -125.56508      67.631034     -1246.8122     -35.273805      78.083925    
    125000   300.41532      0.89547885     0.67938999     1.5748688      189.19406      107.4476       182.16828      227.12854      108.42576     -66.246945     -1290.5292      33.676304      86.532083    
    126000   300.16066      0.89471976     0.67901288     1.5737326      189.19594      107.42234      182.12991      128.06432      165.56636     -13.539568     -1450.482      -130.46638     -40.047238    
    127000   299.73501      0.89345097     0.67967573     1.5731267      189.27926      107.39189      182.09908      96.178189      244.13764     -28.41586      -1407.4011      136.414        16.390575    
    128000   300.28573      0.89509256     0.68074884     1.5758414      189.30535      107.41441      182.18289     -38.316556     -18.6442        104.42215     -1621.4081      74.324696      36.756087    
    129000   299.19157      0.8918311      0.67994681     1.5717779      189.31317      107.43783      182.24341     -153.80871     -75.72945      -257.88164     -1330.4787     -16.441016     -91.839442    
    130000   299.38239      0.89239989     0.68154812     1.573948       189.26124      107.44775      182.16707     -154.61605     -224.34059      70.174395     -1455.9511      87.54953       8.6968933    
    131000   299.55446      0.8929128      0.68000861     1.5729214      189.2854       107.41172      182.2148      -70.595873     -208.39806     -166.73457     -1454.928       133.61643      49.918889    
    132000   299.97838      0.89417643     0.67978702     1.5739634      189.20028      107.46723      182.30626      69.407638     -274.87009      83.622829     -1661.8336      96.44496      -61.086598    
    133000   299.84463      0.89377772     0.68120113     1.5749789      189.27563      107.42126      182.14524      57.386827     -43.159746     -100.94428     -1711.4253      34.889014      13.984646    
    134000   299.7095       0.89337492     0.67973507     1.57311        189.34904      107.42618      182.10329     -209.0693       56.481748      113.11655     -1395.8153     -90.736996      102.34159    
    135000   300.29465      0.89511914     0.67903506     1.5741542      189.30792      107.41803      182.1265       63.09664       52.218717      27.609685     -1562.7212      4.1400628      25.169854    
    136000   299.61567      0.89309525     0.68016851     1.5732638      189.26893      107.41921      182.22137      51.356681      18.062923      54.978049     -1430.9661      30.382877      66.084737    
    137000   300.11076      0.894571       0.68207676     1.5766478      189.32251      107.45716      182.18134     -55.143288      86.88385      -45.34998      -1525.5758     -33.70023       20.768553    
    138000   299.34601      0.89229146     0.68155693     1.5738484      189.40582      107.42964      182.16838     -329.81218     -219.61489      238.45754     -1512.3047     -88.343708     -39.552896    
    139000   300.25705      0.89500709     0.68126323     1.5762703      189.42703      107.42779      182.33945      504.76728      48.955535      22.98496      -1510.1344      92.11225      -6.7757225    
    140000   300.10942      0.89456703     0.67950591     1.5740729      189.29076      107.42673      182.18602     -55.34397       181.95688     -25.056463     -1627.4673      65.711992      134.52483    
    141000   300.66218      0.89621467     0.6802628      1.5764775      189.35939      107.48779      182.1917      -209.87292     -71.581754      110.65702     -1433.8495     -94.583582      10.277059    
    142000   299.60997      0.89307825     0.67855701     1.5716353      189.487        107.43643      182.25876      53.08755      -109.47878     -116.64003     -1696.4516      44.709902      59.713159    
    143000   300.52319      0.89580038     0.67949045     1.5752908      189.44564      107.40676      182.22053      100.22063      114.3305       90.123981     -1573.6135      112.60576     -9.9478704    
    144000   299.97963      0.89418014     0.68023522     1.5744154      189.38017      107.43034      182.14983      388.69136      103.59203      206.85349     -1586.6983     -36.059968     -187.60987    
    145000   300.18404      0.89478945     0.68172001     1.5765095      189.42999      107.44433      182.12723     -60.270336     -174.82855      93.781542     -1613.5773     -82.077191      99.92485     
    146000   299.84431      0.89377677     0.68110463     1.5748814      189.38107      107.46036      182.10284      62.4834       -125.25615     -184.6137      -1477.2946      9.6656591      36.90045     
    147000   299.97912      0.89417861     0.68065761     1.5748362      189.47082      107.44546      182.18675     -64.432968     -350.46645      79.799865     -1370.8023     -79.329566     -49.001862    
    148000   300.74784      0.89647004     0.68028516     1.5767552      189.47532      107.38837      182.23209     -323.7915      -216.98319     -152.06902     -1731.1666     -20.287139      32.290012    
    149000   300.1746       0.8947613      0.68097828     1.5757396      189.48517      107.46437      182.2031      -86.590869     -232.13182     -67.840794     -1507.6577     -167.70909     -121.13377    
    150000   300.37545      0.89535999     0.682045       1.577405       189.60324      107.43594      182.16201     -181.71391     -14.778036      163.0834      -1617.3247     -37.126902      17.86724     
    151000   299.63653      0.89315742     0.68047288     1.5736303      189.45761      107.43783      182.18808      62.624427      106.37654      127.13738     -1399.6283     -13.122415     -11.458742    
    152000   299.29249      0.89213191     0.68064318     1.5727751      189.50257      107.4239       182.14243      97.559866      164.30167      82.479349     -1728.5781     -26.080447     -16.577182    
    153000   300.1219       0.89460421     0.68333833     1.5779425      189.39032      107.49866      182.20212      449.10656      61.359072      210.51142     -1784.6448      37.106423      197.03637    
    154000   299.78837      0.89361004     0.6798565      1.5734665      189.45462      107.46397      182.21111     -47.523272      176.18801      22.602246     -1613.5649      124.44408     -23.777348    
    155000   299.59819      0.89304313     0.68036397     1.5734071      189.49254      107.39709      182.21198     -254.08473     -183.9018      -69.715634     -1618.4528      42.693471      0.72711571   
    156000   299.9017       0.89394786     0.68059985     1.5745477      189.45154      107.44559      182.29795     -291.32927     -31.08406       145.83981     -1671.3444     -108.80651      8.2512002    
    157000   299.9295       0.89403072     0.68066739     1.5746981      189.58103      107.42686      182.10903     -129.82434     -171.39187     -110.58186     -1672.2784      26.883807      60.435712    
    158000   300.42525      0.89550844     0.6808621      1.5763705      189.62595      107.45779      182.17693      3.2455201     -206.12381      354.22373     -1738.59        22.56199       54.678069    
    159000   300.80419      0.89663798     0.68265324     1.5792912      189.58471      107.45882      182.25362     -99.563802      144.27053     -10.074764     -1552.2423     -4.7890722      51.98009     
    160000   299.9946       0.89422475     0.68320715     1.5774319      189.58618      107.46814      182.32375     -163.24412      65.824841      34.526606     -1608.6658     -136.24214      12.093095    
    161000   299.82613      0.89372258     0.68262335     1.5763459      189.60918      107.41554      182.24747      50.063501      337.28584     -131.53126     -1749.1484      24.827796      16.59467     
    162000   299.44295      0.89258039     0.68265019     1.5752306      189.66688      107.38388      182.18416     -18.604493      63.459477     -76.960753     -1608.3992      85.651568      94.742406    
    163000   299.94131      0.89406592     0.68382394     1.5778899      189.62375      107.44249      182.30406      133.25722     -52.736145     -2.0653537     -1923.5745     -7.9552214     -1.4169323    
    164000   300.24367      0.89496718     0.67934127     1.5743084      189.61815      107.42976      182.20186     -236.60281      74.774871      38.029007     -1939.5832     -46.626211      73.329295    
    165000   300.23373      0.89493758     0.68164965     1.5765872      189.55769      107.45471      182.31585      17.373056     -142.09116     -42.694531     -1630.3042      125.47373      116.47323    
    166000   299.85723      0.89381528     0.68188929     1.5757046      189.65041      107.43091      182.22202     -401.98141      265.597       -117.36129     -1644.8113      13.217229     -34.319653    
    167000   299.67586      0.89327467     0.6814575      1.5747322      189.65048      107.3953       182.25586     -224.86117      307.86166     -14.372465     -1838.6898      10.741897      72.324085    
    168000   300.26289      0.89502449     0.68330991     1.5783344      189.62979      107.43039      182.28828     -115.84848     -73.81903       48.430477     -1794.2945     -6.0298612      46.865875    
    169000   299.37166      0.89236789     0.68301458     1.5753825      189.72732      107.44885      182.35376     -3.8447341      118.61089     -20.544902     -1739.4827      55.268566      131.80924    
    170000   300.31503      0.89517989     0.68262972     1.5778096      189.65428      107.41155      182.35254      161.61764      44.750221     -7.2882975     -1663.1792      47.384161     -57.331791    
    171000   299.65961      0.89322622     0.68488593     1.5781122      189.68133      107.44281      182.28517      43.23186      -262.0315      -136.53033     -1969.0667      43.139877      1.9014321    
    172000   299.73549      0.8934524      0.68188878     1.5753412      189.63561      107.43831      182.22424      421.85783     -13.665867      181.31409     -1806.2385      26.057683      10.845875    
    173000   300.24077      0.89495855     0.6831434      1.578102       189.6933       107.42789      182.17384      32.001332     -13.379364      91.893452     -1658.306      -19.597017      71.228144    
    174000   299.78434      0.89359801     0.68368114     1.5772791      189.74997      107.43025      182.32821      10.509094      188.06678      126.25753     -1666.081       103.39303      85.124869    
    175000   300.00653      0.89426032     0.68268054     1.5769409      189.70037      107.45038      182.20656      301.29132      34.378095      51.060543     -2056.0856     -46.450578      70.924113    
    176000   300.79004      0.89659581     0.68196529     1.5785611      189.64484      107.44589      182.29115      113.84081     -406.85074      19.617232     -1734.415      -52.551923      74.683221    
    177000   299.95259      0.89409953     0.68438872     1.5784883      189.59144      107.43104      182.26244      153.20144      114.28534      191.05635     -1982.832      -52.638703     -98.406764    
    178000   300.6115       0.89606363     0.68358668     1.5796503      189.74612      107.39057      182.28522      52.902685      185.40853      109.64344     -1970.4832     -39.072227      10.99417     
    179000   299.92462      0.89401617     0.68439267     1.5784088      189.84515      107.45104      182.26852      22.737109     -168.81638      89.014882     -1896.7865      84.208855      61.611087    
    180000   300.13254      0.89463594     0.68633635     1.5809723      189.77767      107.45302      182.36628     -57.297728      52.746886     -162.44269     -2090.3283     -98.302139     -15.406173    
    181000   299.95517      0.89410724     0.68412936     1.5782366      189.84798      107.46046      182.234       -105.53463     -338.44384      7.0499933     -1823.1059     -88.210091      75.604202    
    182000   299.71401      0.89338837     0.68250885     1.5758972      189.788        107.48137      182.22992     -52.617119     -322.0707       155.1564      -1926.0302      22.558977      77.207156    
    183000   299.88967      0.89391197     0.68488708     1.5787991      189.83728      107.47823      182.3541       152.0531      -36.512608      159.02223     -1875.2975      35.013128      84.502193    
    184000   300.29764      0.89512806     0.68451046     1.5796385      189.9149       107.44756      182.33256      80.012166      285.61887      11.382303     -1801.4847      23.039288     -8.7801844    
    185000   300.09353      0.89451965     0.68440119     1.5789208      189.99558      107.40666      182.20826      23.521278      253.28376      194.27713     -1815.6741     -47.927199     -109.41289    
    186000   300.69328      0.89630738     0.68530837     1.5816158      189.86068      107.41281      182.28246     -96.355663     -116.49166      193.96214     -1782.8435     -1.1497714     -4.6283757    
    187000   300.18336      0.8947874      0.68335707     1.5781445      189.82415      107.46561      182.30477     -95.114251      27.864859     -114.57118     -1846.6886     -86.209299      13.704496    
    188000   299.83644      0.8937533      0.68422393     1.5779772      189.86309      107.48349      182.31849     -181.90674      31.898095      0.2023706     -1959.3433      42.848153      115.30217    
    189000   300.23025      0.89492719     0.68220854     1.5771357      189.77405      107.48523      182.30877      146.4891      -469.26658     -89.543307     -1994.0324     -62.305251     -120.97972    
    190000   300.49957      0.89572998     0.68238972     1.5781197      189.82581      107.431        182.36548     -207.01027     -112.66164     -10.882492     -1899.2226     -11.386425      136.65315    
    191000   300.12303      0.89460759     0.68412613     1.5787337      189.94922      107.45356      182.25098      146.26559      6.9525834      59.233887     -1995.0987      41.430915      80.337626    
    192000   300.11078      0.89457107     0.68796306     1.5825341      189.95598      107.44531      182.37146      174.90626     -78.879321     -159.4818      -2068.882      -142.1011      -28.821522    
    193000   299.46926      0.89265884     0.68504999     1.5777088      189.96278      107.4689       182.30994      227.84119     -68.446281      174.70691     -2100.6601      87.054581     -105.51609    
    194000   300.17461      0.89476135     0.68507989     1.5798412      189.96929      107.4484       182.39275     -96.865788      159.89395      41.539262     -2142.0733      9.5506764     -10.483227    
    195000   300.24959      0.89498484     0.6823599      1.5773447      190.06236      107.4573       182.25877      16.578441      178.12872      131.03743     -1969.3128      8.8149025      2.1509132    
    196000   299.38954      0.8924212      0.68352512     1.5759463      189.95424      107.48399      182.26894     -196.42418     -217.20978      41.74701      -2142.173       14.209784      194.2993     
    197000   300.79726      0.89661733     0.68570898     1.5823263      190.0139       107.47627      182.31048      178.09894      111.35963      22.552713     -1694.5756      104.70482     -28.182372    
    198000   300.55755      0.89590279     0.68592334     1.5818261      189.94376      107.43369      182.32519      592.51125      179.28132      119.87768     -2027.6021     -97.018415      52.00212     
    199000   300.57481      0.89595425     0.68494468     1.5808989      190.05985      107.41609      182.28469     -76.158762      105.52251      49.740691     -2146.6866     -53.034927      19.018844    
    200000   299.69889      0.89334332     0.68438874     1.5777321      190.0405       107.41689      182.30137      128.75522     -26.338189      49.431345     -2069.7265      4.5367191     -33.341347    
    201000   299.7167       0.89339639     0.6846759      1.5780723      190.09431      107.40783      182.4117      -223.97489     -41.12501      -227.96607     -2243.4632     -159.58646     -116.7621     
    202000   300.306        0.89515297     0.68575138     1.5809044      190.06039      107.45044      182.33027      257.56696      18.029227      63.116353     -2059.7608     -70.978508      22.475841    
    203000   299.62208      0.89311435     0.6889032      1.5820176      190.13297      107.44417      182.35681     -168.04174     -319.21842     -174.05944     -1760.5634     -35.851024      112.79085    
    204000   300.36015      0.8953144      0.68598354     1.5812979      189.96148      107.42859      182.35259      42.804452      270.6652       140.96873     -1993.1135      47.04176       69.522378    
    205000   300.18878      0.89480357     0.68720403     1.5820076      190.14873      107.43492      182.31991     -10.639252      53.915495      53.741577     -2181.3464      68.004253      61.710216    
    206000   300.07298      0.89445841     0.68513132     1.5795897      190.11777      107.45433      182.30048     -235.21313      108.49482     -88.594703     -1993.9073     -79.961611     -46.586698    
    207000   299.39972      0.89245154     0.68563932     1.5780909      189.99627      107.42428      182.33959      155.07672     -322.62983     -27.313949     -2108.5279      31.415803      18.049095    
    208000   300.75416      0.89648885     0.68755263     1.5840415      189.98554      107.46474      182.41821     -132.63421      199.43385     -3.5159603     -2346.1205      57.256285      197.60677    
    209000   300.17237      0.89475466     0.68555572     1.5803104      190.07716      107.44379      182.34542      32.322157     -11.893374      40.223064     -2226.839       145.59614     -41.631055    
    210000   300.13652      0.8946478      0.68692769     1.5815755      190.12473      107.45222      182.29974     -128.36578      143.23908      79.94503      -2018.997       177.66609      101.19124    
    211000   300.35741      0.89530624     0.68499152     1.5802978      190.20389      107.49461      182.37432     -80.660855     -2.7090709     -125.80342     -1878.0826     -67.934959     -102.55898    
    212000   300.05228      0.89439669     0.68691291     1.5813096      190.25976      107.46784      182.33138     -28.740376     -520.98208      94.393889     -2177.536      -62.934967     -44.010425    
    213000   300.21971      0.89489578     0.68957485     1.5844706      190.23027      107.43933      182.44423      138.83977     -184.59731      14.418898     -1998.5487     -62.455433      125.39175    
    214000   299.77067      0.89355727     0.68741429     1.5809716      190.23946      107.46255      182.36924      54.411905      206.14994      251.84562     -2090.2078     -81.616377     -56.845878    
    215000   299.78737      0.89360706     0.68751587     1.5811229      190.29186      107.4115       182.30266      230.05179      468.63258      40.719609     -2053.4233      106.914       -38.049814    
    216000   299.67516      0.89327259     0.68513882     1.5784114      190.23575      107.4394       182.33962      242.72669      154.46346     -85.170494     -2252.2255     -5.4327143     -74.265607    
    217000   299.74438      0.89347891     0.68741592     1.5808948      190.30869      107.42387      182.41185      146.36661      186.64581      187.63378     -2157.5873     -49.962975      36.370151    
    218000   300.72755      0.89640955     0.6862898      1.5826994      190.26917      107.39487      182.45922      67.453478     -16.066915      71.232792     -2329.6211     -30.092516      41.661945    
    219000   299.49055      0.89272228     0.68923601     1.5819583      190.29214      107.4695       182.28226      199.36167     -435.25837      48.90553      -2145.8607     -76.444251      7.8147165    
    220000   299.92767      0.89402527     0.68646656     1.5804918      190.27539      107.40636      182.32781      92.823667      44.820148      27.438932     -2136.7139      70.170955      119.89764    
    221000   299.09788      0.89155182     0.68753419     1.579086       190.28677      107.44458      182.44249      57.809395     -311.93772     -23.831837     -2162.9011      9.4486621      58.072549    
    222000   300.13681      0.89464865     0.68664955     1.5812982      190.43185      107.42629      182.41849     -162.22902     -168.74219     -46.047759     -2199.0047      85.572469      74.867536    
    223000   299.68561      0.89330374     0.68633631     1.57964        190.34907      107.40466      182.29326     -21.834808     -205.10224      67.644904     -2259.0525      32.26233       80.383095    
    224000   299.8686       0.89384918     0.6864112      1.5802604      190.42894      107.41744      182.38349     -198.32355      34.56629      -195.7837      -2069.6986     -88.345085      103.93861    
    225000   300.39153      0.89540792     0.68734136     1.5827493      190.38051      107.46382      182.6165       70.971187      47.656266     -60.303813     -2118.1969      99.256422     -67.675984    
    226000   300.1855       0.89479381     0.6885801      1.5833739      190.51648      107.43457      182.43194     -94.249751      242.16623     -87.251716     -2221.6775      39.304709     -31.757162    
    227000   299.65937      0.89322551     0.6893826      1.5826081      190.32762      107.43881      182.3548      -20.249945     -210.84182     -131.36905     -2373.2646      24.989623      43.452115    
    228000   300.32643      0.8952139      0.68924899     1.5844629      190.37944      107.48437      182.31353      268.93908     -326.36684      30.270544     -2287.7134     -26.090965     -88.433162    
    229000   299.75908      0.89352273     0.68821411     1.5817368      190.52161      107.42175      182.40865      22.655401      46.468542      18.84314      -2187.7694      65.418111      32.722121    
    230000   300.43325      0.89553229     0.69008049     1.5856128      190.51245      107.41364      182.47809     -211.52686     -116.37206      57.041748     -2250.3651      46.133318      184.35083    
    231000   299.94347      0.89407235     0.68562545     1.5796978      190.33594      107.45454      182.41735      255.96783     -403.43915     -26.839456     -2481.2575     -18.669889      30.048474    
    232000   299.97244      0.89415871     0.6870286      1.5811873      190.46538      107.41366      182.38901     -223.54744      223.70744      295.56728     -2358.3458      91.041079     -32.427908    
    233000   299.79396      0.89362671     0.68924834     1.582875       190.43451      107.43155      182.4101      -428.30164     -213.64185     -29.262613     -2310.4648     -97.175548      77.963405    
    234000   299.90535      0.89395871     0.68729101     1.5812497      190.44565      107.42697      182.40278      267.89332      42.54177       129.39359     -2194.9484      49.570572      114.44254    
    235000   299.85216      0.89380018     0.68962664     1.5834268      190.58763      107.43453      182.46299     -182.92826      442.51934      205.56374     -2375.9509      16.774989     -5.6921286    
    236000   300.17107      0.8947508      0.68783913     1.5825899      190.58387      107.43554      182.49875      37.928458      137.159        179.33056     -2290.9729     -3.5202692      7.7643177    
    237000   299.61241      0.89308552     0.68829246     1.581378       190.47697      107.4572       182.40248     -120.17011      119.75397      163.39015     -2408.2407     -19.048406      44.062853    
    238000   299.92426      0.89401508     0.68663676     1.5806518      190.42293      107.47257      182.43013      67.028287     -186.96908     -9.1347768     -2702.5612      120.98429     -55.981024    
    239000   299.97771      0.8941744      0.6873271      1.5815015      190.57074      107.45572      182.4207      -117.06058      120.42556     -196.01036     -2309.4689     -13.943808      53.307297    
    240000   299.35073      0.89230552     0.68868127     1.5809868      190.6309       107.49973      182.38893     -116.00841     -12.864804     -143.04674     -2195.1667      94.804852      46.405436    
    241000   299.45856      0.89262694     0.68918841     1.5818153      190.65331      107.40519      182.48348     -181.6605      -15.433196     -235.99198     -2345.9645     -91.770153      1.6048943    
    242000   300.05176      0.89439515     0.68875874     1.5831539      190.69609      107.45393      182.47576     -189.76111     -173.1551       142.03216     -2212.7493      5.1296297     -10.63176     
    243000   299.91019      0.89397317     0.69131417     1.5852873      190.63594      107.45269      182.4099       292.68448     -217.89255      95.798169     -2584.7165     -65.929119     -138.99659    
    244000   300.18911      0.89480457     0.68937109     1.5841757      190.51681      107.51536      182.51946      212.33466     -200.83292     -33.98208      -2358.075       48.59389       62.573054    
[...]
   2976000   300.78929      0.89659356     0.69453419     1.5911278      213.56964      109.11689      161.25965      182.62176      236.84268     -37.37049       1026.3485      11.137445      60.363296    
   2977000   299.9836       0.89419196     0.69585112     1.5900431      213.53668      109.06297      161.28357     -379.0645      -57.172378     -301.88739      1051.8654     -96.096277      150.16129    
   2978000   300.78588      0.89658342     0.69643605     1.5930195      213.22558      109.20396      161.38027      88.967678      141.36618     -255.61564      1036.3791      52.735119      158.07857    
   2979000   299.6028       0.89305688     0.69577209     1.588829       213.21453      109.12285      161.59322     -232.64488     -318.7778       59.546789      916.56434     -65.557583      37.433539    
   2980000   299.82339      0.89371443     0.69795082     1.5916652      213.42594      109.12593      161.44842     -63.889521      78.681646     -88.671917      1311.6919      155.42403      97.246911    
   2981000   299.81483      0.89368891     0.69735482     1.5910437      213.40949      109.16253      161.31776      10.583184     -13.539839      95.308395      941.50578     -102.30522      232.47731    
   2982000   300.25216      0.8949925      0.69648983     1.5914823      213.62323      109.09909      161.23999      40.5826       -75.193738      49.977339      1111.1859     -45.532293      280.57923    
   2983000   300.18222      0.89478402     0.69721827     1.5920023      213.75897      109.14268      161.09619      185.29995     -37.319649      67.592532      979.20762      107.10637      166.31469    
   2984000   299.70636      0.89336556     0.6950634      1.588429       213.73911      109.05392      161.19937     -52.45552       343.4655       1.3702861      1057.6423     -9.7045318      134.85551    
   2985000   299.75521      0.89351119     0.69390281     1.587414       213.47455      109.09065      161.22142     -3.0325923     -346.37736      205.92712      1252.2354     -37.131027      135.22158    
   2986000   299.89162      0.89391781     0.69550323     1.589421       213.65331      109.09256      161.31445     -9.6701196     -0.17314494     76.571658      979.51096      76.274889      33.303569    
   2987000   299.97161      0.89415624     0.69619875     1.590355       213.65258      109.11723      161.18328     -96.155531      57.959251      11.495925      1034.4699      153.15069      207.95023    
   2988000   299.86877      0.89384968     0.69623946     1.5900891      213.72408      109.07825      161.18821      188.84323     -81.09815       96.068726      762.93884      120.16332      38.863121    
   2989000   300.06163      0.89442455     0.6946777      1.5891023      213.62149      109.17345      161.12004      71.191532     -3.0572537      36.260534      1087.5016      10.837424     -75.875572    
   2990000   300.47797      0.89566559     0.69470612     1.5903717      213.54767      109.11701      161.29486     -4.9757773      320.83874      19.235363      1116.8811      200.34967      161.26025    
   2991000   299.88198      0.89388907     0.69324624     1.5871353      213.42204      109.09849      161.35496      4.3146566      55.310532     -90.610141      991.58243     -148.63605      213.72214    
   2992000   300.17029      0.89474846     0.69482014     1.5895686      213.52453      109.13947      161.35951     -85.534507      140.83974     -184.0692       966.30845      1.0287699      121.40584    
   2993000   299.89524      0.8939286      0.69762674     1.5915553      213.73944      109.12749      161.09257      107.44457      37.385251      171.87692      956.74375      30.997222      205.63672    
   2994000   300.59713      0.89602078     0.69715803     1.5931788      213.77846      109.08224      161.11427      57.506863      274.72381      89.451479      1076.5983     -143.49444      139.06235    
   2995000   299.15275      0.89171536     0.694668       1.5863834      213.61892      109.08833      161.20577     -57.539619      91.81473      -84.336737      1071.8787      118.46212      83.533835    
   2996000   299.81019      0.89367506     0.69896067     1.5926357      213.56689      109.14416      161.15699      55.607206      344.72424      147.4908       1184.1706     -6.7768427      226.34902    
   2997000   300.11143      0.89457302     0.69598516     1.5905582      213.77387      109.11622      161.20467     -73.208988     -103.10542      22.03216       1071.1182     -65.008973      100.54784    
   2998000   300.07497      0.89446432     0.69826169     1.592726       213.89798      109.16601      161.13563      47.601449      251.58566     -27.41005       1147.3769      112.48302      266.97847    
   2999000   299.26917      0.89206241     0.6957812      1.5878436      214.06418      109.10718      161.05039      292.24929      156.21002      87.986215      877.24633     -155.84565      53.470059    
   3000000   299.88112      0.89388649     0.69714587     1.5910324      213.65921      109.12579      161.18978      207.58705      307.00657      135.60164      1124.9456      41.261181      124.25631    
Loop time of 24064.1 on 256 procs for 1500000 steps with 414720 atoms

Performance: 5.386 ns/day, 4.456 hours/ns, 62.333 timesteps/s, 25.851 Matom-step/s
99.4% CPU use with 256 MPI tasks x no OpenMP threads

MPI task timing breakdown:
Section |  min time  |  avg time  |  max time  |%varavg| %total
---------------------------------------------------------------
Pair    | 9900       | 10235      | 10582      | 113.6 | 42.53
Bond    | 443.55     | 460.41     | 478.22     |  22.5 |  1.91
Kspace  | 3394       | 3868.9     | 4287.6     | 266.9 | 16.08
Neigh   | 5047.8     | 5176       | 5281       |  87.6 | 21.51
Comm    | 2421.5     | 2763.3     | 3307.9     | 441.8 | 11.48
Output  | 1.1761     | 4.1433     | 4.4259     |  11.1 |  0.02
Modify  | 1152.8     | 1387.5     | 1534.7     | 257.5 |  5.77
Other   |            | 168.7      |            |       |  0.70

Nlocal:           1620 ave        1685 max        1556 min
Histogram: 5 10 18 33 58 62 45 19 3 3
Nghost:        8555.94 ave        8714 max        8364 min
Histogram: 4 2 8 29 49 67 56 30 5 6
Neighs:         376498 ave      396954 max      352291 min
Histogram: 6 6 11 23 38 70 61 28 10 3

Total # of neighbors = 96383593
Ave neighs/atom = 232.40643
Ave special neighs/atom = 9.4
Neighbor list builds = 207157
Dangerous builds = 22
unfix           4

unfix           7  # box_parameters.dat
unfix           6  # center.dat
unfix           2  # output.dat
unfix           1
#======================NPT equilibration
fix             5 all nph tri ${patm} ${patm} ${pdamp} fixedpoint ${xcm} ${ycm} ${zcm} flip no
fix             5 all nph tri 1 ${patm} ${pdamp} fixedpoint ${xcm} ${ycm} ${zcm} flip no
fix             5 all nph tri 1 1 ${pdamp} fixedpoint ${xcm} ${ycm} ${zcm} flip no
fix             5 all nph tri 1 1 1000 fixedpoint ${xcm} ${ycm} ${zcm} flip no
fix             5 all nph tri 1 1 1000 fixedpoint 25.8340077473748 ${ycm} ${zcm} flip no
fix             5 all nph tri 1 1 1000 fixedpoint 25.8340077473748 49.7331052487967 ${zcm} flip no
fix             5 all nph tri 1 1 1000 fixedpoint 25.8340077473748 49.7331052487967 86.2722299428351 flip no
run             ${trelax}
run             50000
PPPM initialization ...
  using 12-bit tables for long-range coulomb (../kspace.cpp:342)
  G vector (1/distance) = 0.29202899
  grid = 32 32 60
  stencil order = 6
  estimated absolute RMS force accuracy = 10.942484
  estimated relative force accuracy = 0.032952964
  using double precision KISS FFT
  3d grid and FFT values/proc = 2310 256
Generated 3 of 3 mixed pair_coeff terms from arithmetic mixing rule
Per MPI rank memory allocation (min/avg/max) = 18.45 | 18.46 | 18.46 Mbytes
   Step          Temp          KinEng         PotEng         TotEng           Lx             Ly             Lz            Pxx            Pyy            Pzz            Pxy            Pxz            Pyz      
   3000000   299.88112      0.89388649     0.69714589     1.5910324      213.65921      109.12579      161.18978      207.59269      307.00847      135.60112      1125.1686      41.264404      124.31037    
   3001000   300.27092      0.89504843     0.69448755     1.589536       213.43856      109.11051      161.18289     -285.87647     -21.844754      204.03949      481.51933     -105.6157      -64.347282    
   3002000   300.32596      0.89521248     0.69356838     1.5887809      213.08299      109.10846      161.24653     -391.96099     -165.00818      184.28288      99.000075     -10.048853     -238.35907    
   3003000   299.89009      0.89391323     0.69189977     1.585813       212.86472      109.1369       161.31476      22.11538      -10.634976     -77.119647      135.93701     -50.777701     -127.52233    
   3004000   300.00977      0.89426999     0.6912154      1.5854854      212.62064      109.12105      161.33969     -27.919826      125.90531     -79.605329      57.992447      181.42494     -85.187772    
   3005000   299.93643      0.89405137     0.68980791     1.5838593      212.49366      109.10846      161.38206     -35.971139      290.27338      77.23858       3.7515072      68.682734     -45.637741    
   3006000   300.03307      0.89433943     0.69060056     1.58494        212.51169      109.1446       161.42919     -27.886051     -151.50152     -81.686524      16.178154      11.598005     -178.13315    
   3007000   301.11169      0.89755458     0.6894713      1.5870259      212.38869      109.1701       161.45785     -169.07906      95.443571     -36.223211      151.3043      -33.919064     -45.418345    
   3008000   300.13764      0.89465114     0.69284622     1.5874974      212.46652      109.14201      161.44791      33.571932      237.46068     -123.49908      38.856947     -18.628707      43.044667    
   3009000   299.93637      0.89405118     0.69029542     1.5843466      212.49154      109.14856      161.41281     -29.048737     -108.56574     -174.4614       113.63432      164.45508      9.7280096    
   3010000   299.47252      0.89266855     0.69016541     1.582834       212.44991      109.15299      161.27929     -294.83507     -186.31807     -13.184996     -135.56162     -46.805122      12.087145    
   3011000   300.20589      0.89485458     0.69124245     1.586097       212.70334      109.12865      161.24937     -52.596434     -111.76511     -206.51896      94.572383     -4.3761921     -63.949229    
   3012000   299.79433      0.8936278      0.69038195     1.5840098      212.81067      109.17299      161.14737      12.765582     -102.52894      27.17151       63.13605       22.805897     -12.516734    
   3013000   299.33135      0.89224775     0.69029249     1.5825402      212.98072      109.14672      161.03642     -388.22088     -285.22672     -79.843909     -171.49427     -195.03899     -150.22203    
   3014000   300.25794      0.89500973     0.6911704      1.5861801      213.11181      109.13728      160.8533       120.26985      53.83721       121.02861     -95.626982     -74.825056     -48.191092    
   3015000   300.45803      0.89560615     0.69031127     1.5859174      213.03167      109.11609      160.8547       243.14469      211.80185     -9.7990101      37.271239     -34.499995      85.406502    
   3016000   298.7364       0.89047433     0.69089284     1.5813672      213.19533      109.14805      160.84497     -71.889974      33.300052      45.242981     -66.037969      68.417686     -135.65893    
   3017000   300.38631      0.89539237     0.68987708     1.5852695      213.32173      109.12619      160.70792     -180.55936      124.25033      211.8494      -59.126193     -87.464806      7.0004829    
   3018000   299.67817      0.89328155     0.69132473     1.5846063      213.44946      109.17184      160.64767     -305.22525     -2.0692732     -279.06592     -145.41076     -336.87657     -79.034939    
   3019000   299.77157      0.89355996     0.69014296     1.5837029      213.65595      109.12901      160.52735     -152.04159     -245.12708     -14.288364     -28.032065      65.408964      82.080577    
   3020000   300.02074      0.89430267     0.68928256     1.5835852      213.77399      109.14487      160.40504      104.97325      137.94239      168.47538     -79.166317     -65.628902     -2.7399188    
   3021000   300.19256      0.89481485     0.68873799     1.5835528      213.80296      109.12965      160.39368      55.13731      -85.786811      186.93618     -129.05827      166.92565     -82.302404    
   3022000   300.31003      0.89516501     0.6917907      1.5869557      213.99757      109.19282      160.29578      225.35015      79.454388      257.32548     -105.3549       25.684073     -2.3529261    
   3023000   300.20277      0.89484528     0.69264978     1.5874951      213.84966      109.19807      160.46813      65.809626     -201.7014      -49.309938      159.93604      104.71847      2.0393078    
   3024000   300.77342      0.89654627     0.69144435     1.5879906      214.04924      109.14137      160.33794     -32.587262      40.595296     -53.205675      37.90731       28.250542     -72.562625    
   3025000   299.9842       0.89419377     0.69019399     1.5843878      214.02868      109.2044       160.15862      181.46203      92.01813       89.76843      -211.00315     -36.333804      93.236118    
   3026000   299.72876      0.89343236     0.69263546     1.5860678      213.99463      109.14436      160.24594     -89.70901       145.69818      4.0259234      240.53996     -33.535347      89.890535    
   3027000   300.52415      0.89580324     0.69259716     1.5884004      214.05096      109.14284      160.314        381.78394     -358.59723      137.96732     -22.539787      6.6807919     -3.1427294    
   3028000   300.24735      0.89497815     0.69132535     1.5863035      214.05884      109.15162      160.24496     -116.22713      99.48943       167.10096      32.634889     -34.332855     -32.091186    
   3029000   299.52131      0.89281399     0.69021685     1.5830308      213.75368      109.13285      160.50261      65.27088      -275.71039      186.9238      -88.120646      16.330461      47.621146    
   3030000   299.69282      0.89332521     0.68878627     1.5821115      213.59911      109.21078      160.43801      282.3516       196.65287      212.72534      40.436635     -1.5515581     -18.563088    
   3031000   299.83406      0.89374621     0.69285985     1.5866061      213.84212      109.11929      160.50064     -115.70104      165.64626      57.457533      248.82136     -203.46747      214.15537    
   3032000   300.30287      0.89514365     0.69073802     1.5858817      213.84151      109.1377       160.37245     -8.9890585      348.92654      58.550816      117.88582     -74.324333      31.787619    
   3033000   299.51071      0.89278237     0.69171823     1.5845006      213.91464      109.16165      160.16456     -115.34937      131.5122      -4.5373862      45.481705     -22.272382      127.55631    
   3034000   300.01046      0.89427203     0.69177054     1.5860426      214.16402      109.09783      160.22023     -92.907711     -11.393118     -150.46515      120.99734     -47.923895      13.234434    
   3035000   299.79763      0.89363765     0.69121168     1.5848493      214.16677      109.1188       160.17955     -93.941749     -121.03403      248.6218       12.224514      83.707986      102.74421    
   3036000   300.3303       0.89522542     0.69061585     1.5858413      213.98689      109.13645      160.28285      9.9471772      196.85639      171.5216      -38.908939     -75.778641      72.861757    
   3037000   299.71511      0.89339166     0.69355886     1.5869505      214.08228      109.19363      160.23655      205.08977      130.15023      224.62125     -123.08342     -73.908329      35.320636    
   3038000   300.56993      0.8959397      0.6920255      1.5879652      214.14189      109.19551      160.24989      101.71158     -276.50689     -118.74325     -82.704693      91.810349      82.826381    
   3039000   299.90339      0.89395289     0.68998597     1.5839389      214.28558      109.12078      160.12586     -249.32735     -78.004928     -125.84586      212.24638     -102.64559     -10.104014    
   3040000   299.64391      0.89317942     0.6910944      1.5842738      214.39031      109.15538      160.12296      237.9206       208.85527      0.73504152    -157.46012      15.952722      60.856544    
   3041000   300.05179      0.89439523     0.69187279     1.586268       214.48764      109.20328      159.94413      143.53452     -239.35371      98.009863      239.09616      3.3217446      13.8843      
   3042000   300.23811      0.8949506      0.68964698     1.5845976      214.69742      109.09524      159.98479     -0.55141528    -191.00805     -57.136435     -29.034337     -52.95787       58.312576    
   3043000   299.98548      0.89419758     0.69181659     1.5860142      214.57132      109.18217      160.00538     -269.17824     -23.236351      9.7274322     -127.3009      -51.585924     -8.6771492    
   3044000   300.69192      0.89630334     0.69088145     1.5871848      214.70235      109.14843      159.77461      27.127882     -121.24246      191.02144     -54.179804     -9.2452343      59.117522    
   3045000   300.13362      0.89463914     0.69098578     1.5856249      214.58991      109.18442      160.00458     -11.919642     -255.50874     -79.60737       20.638378     -8.7729854      98.386343    
   3046000   300.35433      0.89529703     0.69291724     1.5882143      214.38169      109.15405      160.06419      112.64984      40.724087      10.399907     -43.992172      76.963392     -62.737439    
   3047000   300.30505      0.89515015     0.69198874     1.5871389      214.52574      109.1155       160.03513      33.866656     -37.927652      103.31289      156.34559     -62.773257      97.929941    
   3048000   300.00903      0.89426777     0.69112608     1.5853938      214.41948      109.16261      160.02709     -79.837011      22.132395     -308.46321      78.797558     -112.33763     -88.546313    
   3049000   300.67302      0.89624701     0.69192115     1.5881682      214.33891      109.10448      159.93869     -115.04459      124.355        90.781801      19.317507      122.39022      69.393014    
   3050000   299.72708      0.89342732     0.69100161     1.5844289      214.46423      109.16578      159.86004     -56.697214      84.449139      53.826013      143.10991      35.336089     -129.29321    
Loop time of 771.165 on 256 procs for 50000 steps with 414720 atoms

Performance: 5.602 ns/day, 4.284 hours/ns, 64.837 timesteps/s, 26.889 Matom-step/s
99.4% CPU use with 256 MPI tasks x no OpenMP threads

MPI task timing breakdown:
Section |  min time  |  avg time  |  max time  |%varavg| %total
---------------------------------------------------------------
Pair    | 313.91     | 337.8      | 350.06     |  32.8 | 43.80
Bond    | 14.136     | 15.353     | 15.941     |   7.6 |  1.99
Kspace  | 111.03     | 124.45     | 151.47     |  66.2 | 16.14
Neigh   | 164.29     | 168.93     | 173.04     |  18.0 | 21.91
Comm    | 82.951     | 93.519     | 110.3      |  83.2 | 12.13
Output  | 0.010757   | 0.01542    | 0.022108   |   2.1 |  0.00
Modify  | 19.79      | 25.982     | 30.919     |  61.0 |  3.37
Other   |            | 5.115      |            |       |  0.66

Nlocal:           1620 ave        1670 max        1532 min
Histogram: 4 1 4 5 33 53 61 60 25 10
Nghost:        8564.36 ave        8694 max        8388 min
Histogram: 4 5 11 29 34 50 53 36 27 7
Neighs:         377911 ave      392786 max      346705 min
Histogram: 3 2 1 10 13 42 63 66 37 19

Total # of neighbors = 96745264
Ave neighs/atom = 233.27851
Ave special neighs/atom = 9.4
Neighbor list builds = 6921
Dangerous builds = 2
unfix           5
######################################
# SIMULATION DONE
Total wall time: 13:40:15
