LAMMPS (27 Jun 2024)
include lmp.in
#smiles: Cc1c(C)c(C)c(C)c(C)c1C
units real
atom_style full

dimension 3
boundary p p p  #p p m

bond_style hybrid harmonic
angle_style hybrid harmonic
dihedral_style hybrid charmm
# special_bonds amber # same as special_bonds lj 0.0 0.0 0.5000 coul 0.0 0.0 0.83333
special_bonds amber lj 0.0 0.0 0.50000 coul 0.0 0.0 0.83333 angle yes dihedral no
box tilt large

The 'box' command has been removed and will be ignored


read_data lmp.dat
Reading data file ...
  triclinic box = (0 0 0) to (30.8471 17.6224 57.5148) with tilt (0.0233 -6.027 -0.9687)
  8 by 4 by 8 MPI processor grid
  reading atoms ...
  3840 atoms
  reading velocities ...
  3840 velocities
  scanning bonds ...
  4 = max bonds/atom
  scanning angles ...
  6 = max angles/atom
  scanning dihedrals ...
  8 = max dihedrals/atom
  triclinic box = (0 0 0) to (30.8471 17.6224 57.5148) with tilt (0.0233 -6.027 -0.9687)
  8 by 4 by 8 MPI processor grid
  reading bonds ...
  3840 bonds
  reading angles ...
  6912 angles
  reading dihedrals ...
  3840 dihedrals
Finding 1-2 1-3 1-4 neighbors ...
  special bond factors lj:    0        0        0.5     
  special bond factors coul:  0        0        0.83333 
     4 = max # of 1-2 neighbors
     7 = max # of 1-3 neighbors
    17 = max # of 1-4 neighbors
  13824 = # of 1-3 neighbors before angle trim
  13824 = # of 1-3 neighbors after angle trim
    19 = max # of special neighbors
  special bonds CPU = 0.467 seconds
  read_data CPU = 0.540 seconds

neighbor 2.0 multi
neigh_modify every 2 delay 4 check yes
#neigh_modify every 2 delay 10

pair_style lj/cut/coul/long 9.0 9.0
pair_modify mix arithmetic shift no tail yes
kspace_style pppm 0.0005
kspace_modify gewald 0.29202898720871845 mesh 32 32 60 order 6

pair_coeff 1 1   0.1094000   3.3996695
pair_coeff 2 2   0.0860000   3.3996695
pair_coeff 3 3   0.0157000   2.6495328

#pair_modify mix arithmetic
thermo_style custom step temp vol press etotal pe ke epair ecoul elong evdwl ebond eangle edihed eimp emol etail #    cella cellb cellc cellalpha cellbeta cellgamma density pxx pyy pzz pxy pxy pyz
thermo_modify lost ignore flush yes

#compute peatom all pe/atom
#dump 1 all custom 1 dump.lammpstrj id type q x y z fx fy fz c_peatom element
#dump_modify 1 sort id pad 9 element C C H

#minimize 1e-5 1e-5 100 100
#run 0

variable temperature equal      300.000
variable patm equal        1.000
variable dt equal        1.000
variable trelax equal   50000.000
variable deform_steps equal       50.000
variable ele_string string "C C H"
variable strain_total equal        0.30
variable strainrate equal 2.000000e+08
variable direction1 string yz
variable direction2 string xz
replicate  6 6 3
Replication is creating a 6x6x3 = 108 times larger system...
  triclinic box = (0 0 0) to (185.0826 105.7344 172.5444) with tilt (0.1398 -18.081 -2.9061)
  8 by 4 by 8 MPI processor grid
  414720 atoms
  414720 bonds
  746496 angles
  414720 dihedrals
Finding 1-2 1-3 1-4 neighbors ...
  special bond factors lj:    0        0        0.5     
  special bond factors coul:  0        0        0.83333 
     4 = max # of 1-2 neighbors
     7 = max # of 1-3 neighbors
    17 = max # of 1-4 neighbors
  1492992 = # of 1-3 neighbors before angle trim
  1492992 = # of 1-3 neighbors after angle trim
    19 = max # of special neighbors
  special bonds CPU = 0.018 seconds
  replicate CPU = 0.049 seconds
#include lmp.in

variable srate      equal ${strainrate}/1e15
variable srate      equal 200000000/1e15
variable thermo     equal "ceil(abs(1e12 / v_strainrate))"
variable tdamp      equal 100*${dt}
variable tdamp      equal 100*1
variable pdamp      equal 1000*${dt}
variable pdamp      equal 1000*1
variable pe         equal pe

# for units real, pressure is in [atmospheres] = 0.101325 [MPa]
variable sxx        equal "-pxx*0.101325"
variable syy        equal "-pyy*0.101325"
variable szz        equal "-pzz*0.101325"
variable sxz        equal "-pxz*0.101325"
variable syz        equal "-pyz*0.101325"
variable sxy        equal "-pxy*0.101325"
variable steps      equal ceil(abs(${strain_total}/${srate}))
variable steps      equal ceil(abs(0.3/${srate}))
variable steps      equal ceil(abs(0.3/2e-07))
variable dump_steps equal ceil(${steps}/${deform_steps})
variable dump_steps equal ceil(1500000/${deform_steps})
variable dump_steps equal ceil(1500000/50)
variable strain     equal "step*v_srate"
variable    xcm     equal xcm(all,x)
variable    ycm     equal xcm(all,y)
variable    zcm     equal xcm(all,z)
variable    xhi     equal xhi
variable    yhi     equal yhi
variable    zhi     equal zhi
variable    xlo     equal xlo
variable    ylo     equal ylo
variable    zlo     equal zlo
variable    xy      equal xy
variable    xz      equal xz
variable    yz      equal yz


print "strainrate ${strainrate}"
strainrate 200000000
print "srate ${srate}"
srate 2e-07
print "steps ${steps}"
steps 1500000
print "dump_steps ${dump_steps}"
dump_steps 30000


thermo          1000
neighbor        1.0    bin
neigh_modify    every 1 delay 5 check yes
thermo_style    custom step temp ke pe etotal lx ly lz pxx pyy pzz pxy pxz pyz vol
WARNING: New thermo_style command, previous thermo_modify settings will be lost (../output.cpp:904)
thermo_modify   lost warn norm yes
timestep 	    ${dt}
timestep 	    1

#======================== Energy minimization
min_style       cg
minimize        1.0e-25 1.0e-25 100 100000

CITE-CITE-CITE-CITE-CITE-CITE-CITE-CITE-CITE-CITE-CITE-CITE-CITE

Your simulation uses code contributions which should be cited:

- Type Label Framework: https://doi.org/10.1021/acs.jpcb.3c08419

@Article{Gissinger24,
 author = {Jacob R. Gissinger, Ilia Nikiforov, Yaser Afshar, Brendon Waters, Moon-ki Choi, Daniel S. Karls, Alexander Stukowski, Wonpil Im, Hendrik Heinz, Axel Kohlmeyer, and Ellad B. Tadmor},
 title = {Type Label Framework for Bonded Force Fields in LAMMPS},
 journal = {J. Phys. Chem. B},
 year =    2024,
 volume =  128,
 number =  13,
 pages =   {3282–-3297}
}

- neighbor multi command: doi:10.1016/j.cpc.2008.03.005, doi:10.1007/s40571-020-00361-2

@Article{Intveld08,
 author =  {in 't Veld, P. J. and S. J.~Plimpton and G. S. Grest},
 title =   {Accurate and Efficient Methods for Modeling Colloidal
            Mixtures in an Explicit Solvent using Molecular Dynamics},
 journal = {Comput.\ Phys.\ Commut.},
 year =    2008,
 volume =  179,
 pages =   {320--329}
}

@article{Shire2020,
 author = {Shire, Tom and Hanley, Kevin J. and Stratford, Kevin},
 title = {{DEM} Simulations of Polydisperse Media: Efficient Contact
          Detection Applied to Investigate the Quasi-Static Limit},
 journal = {Computational Particle Mechanics},
 year = {2020}
@article{Monti2022,
 author = {Monti, Joseph M. and Clemmer, Joel T. and Srivastava, 
           Ishan and Silbert, Leonardo E. and Grest, Gary S. 
           and Lechman, Jeremy B.},
 title = {Large-scale frictionless jamming with power-law particle 
          size distributions},
 journal = {Phys. Rev. E},
 volume = {106}
 issue = {3}
 year = {2022}
}

CITE-CITE-CITE-CITE-CITE-CITE-CITE-CITE-CITE-CITE-CITE-CITE-CITE

Switching to 'neigh_modify every 1 delay 0 check yes' setting during minimization
PPPM initialization ...
  using 12-bit tables for long-range coulomb (../kspace.cpp:342)
  G vector (1/distance) = 0.29202899
  grid = 32 32 60
  stencil order = 6
  estimated absolute RMS force accuracy = 2.8571248
  estimated relative force accuracy = 0.0086041466
  using double precision KISS FFT
  3d grid and FFT values/proc = 2310 256
Generated 3 of 3 mixed pair_coeff terms from arithmetic mixing rule
Neighbor list info ...
  update: every = 1 steps, delay = 0 steps, check = yes
  max neighbors/atom: 2000, page size: 100000
  master list distance cutoff = 10
  ghost atom cutoff = 10
  binsize = 5, bins = 41 22 35
  1 neighbor lists, perpetual/occasional/extra = 1 0 0
  (1) pair lj/cut/coul/long, perpetual
      attributes: half, newton on
      pair build: half/bin/newton/tri
      stencil: half/bin/3d/tri
      bin: standard
Per MPI rank memory allocation (min/avg/max) = 17.26 | 17.26 | 17.27 Mbytes
   Step          Temp          KinEng         PotEng         TotEng           Lx             Ly             Lz            Pxx            Pyy            Pzz            Pxy            Pxz            Pyz           Volume    
         0   0              0              4.2825885      4.2825885      185.0826       105.7344       172.5444       137338.95      121512.06      216523.6      -4296.0927     -4806.8582      2648.8182      3376624.5    
        66   0              0             -0.29790531    -0.29790531     185.0826       105.7344       172.5444      -3083.867      -2732.5982      932.45944     -920.37903     -782.45777      327.3653       3376624.5    
Loop time of 3.31684 on 256 procs for 66 steps with 414720 atoms

98.7% CPU use with 256 MPI tasks x no OpenMP threads

Minimization stats:
  Stopping criterion = linesearch alpha is zero
  Energy initial, next-to-last, final = 
      4.28258852997219  -0.29790530902869 -0.297905309028693
  Force two-norm initial, final = 59619.755 27.935035
  Force max component initial, final = 140.90257 0.10194492
  Final line search alpha, max atom move = 6.5855622e-06 6.7136463e-07
  Iterations, force evaluations = 66 163

MPI task timing breakdown:
Section |  min time  |  avg time  |  max time  |%varavg| %total
---------------------------------------------------------------
Pair    | 1.7682     | 1.8352     | 2.5356     |   4.1 | 55.33
Bond    | 0.045015   | 0.045727   | 0.050244   |   0.3 |  1.38
Kspace  | 0.38229    | 1.0815     | 1.1573     |   5.4 | 32.61
Neigh   | 0          | 0          | 0          |   0.0 |  0.00
Comm    | 0.21404    | 0.25277    | 0.29262    |   3.3 |  7.62
Output  | 0          | 0          | 0          |   0.0 |  0.00
Modify  | 0          | 0          | 0          |   0.0 |  0.00
Other   |            | 0.1017     |            |       |  3.07

Nlocal:           1620 ave        1620 max        1620 min
Histogram: 256 0 0 0 0 0 0 0 0 0
Nghost:           9027 ave        9045 max        9009 min
Histogram: 128 0 0 0 0 0 0 0 0 128
Neighs:         413478 ave      414651 max      412306 min
Histogram: 9 19 4 36 54 71 33 6 15 9

Total # of neighbors = 1.0585037e+08
Ave neighs/atom = 255.23333
Ave special neighs/atom = 9.4
Neighbor list builds = 0
Dangerous builds = 0
#fix             BoxRelax all box/relax tri 0.0  vmax 0.01 nreset 10 fixedpoint ${xcm} ${ycm} ${zcm}
#minimize        1.0e-25 1.0e-25 100 100# 000 1000000
#unfix           BoxRelax
dump            1 all custom 10000 0.dump element id mol type x y z
undump          1

#========================= Global setting for NPT simulation
fix             langevin all langevin ${temperature} ${temperature} ${tdamp} 32258453 zero yes
fix             langevin all langevin 300 ${temperature} ${tdamp} 32258453 zero yes
fix             langevin all langevin 300 300 ${tdamp} 32258453 zero yes
fix             langevin all langevin 300 300 100 32258453 zero yes

#======================== NPT equilibration
velocity        all create ${temperature} 1938072 mom yes rot no
velocity        all create 300 1938072 mom yes rot no
#fix             1 all npt temp ${temperature} ${temperature} ${tdamp} iso ${pressure} ${pressure} ${pdamp}
fix             1 all nph tri ${patm} ${patm} ${pdamp} fixedpoint ${xcm} ${ycm} ${zcm} flip no
fix             1 all nph tri 1 ${patm} ${pdamp} fixedpoint ${xcm} ${ycm} ${zcm} flip no
fix             1 all nph tri 1 1 ${pdamp} fixedpoint ${xcm} ${ycm} ${zcm} flip no
fix             1 all nph tri 1 1 1000 fixedpoint ${xcm} ${ycm} ${zcm} flip no
fix             1 all nph tri 1 1 1000 fixedpoint 86.4620903653394 ${ycm} ${zcm} flip no
fix             1 all nph tri 1 1 1000 fixedpoint 86.4620903653394 51.0010969797264 ${zcm} flip no
fix             1 all nph tri 1 1 1000 fixedpoint 86.4620903653394 51.0010969797264 86.2722299428767 flip no

dump            1 all custom 20000 equilibrium.*.dump element id mol type x y z
dump_modify     1 element ${ele_string}
dump_modify     1 element C C H
run             ${trelax}
run             50000
PPPM initialization ...
  using 12-bit tables for long-range coulomb (../kspace.cpp:342)
  G vector (1/distance) = 0.29202899
  grid = 32 32 60
  stencil order = 6
  estimated absolute RMS force accuracy = 2.8571248
  estimated relative force accuracy = 0.0086041466
  using double precision KISS FFT
  3d grid and FFT values/proc = 2310 256
Generated 3 of 3 mixed pair_coeff terms from arithmetic mixing rule
Per MPI rank memory allocation (min/avg/max) = 16.13 | 16.14 | 16.14 Mbytes
   Step          Temp          KinEng         PotEng         TotEng           Lx             Ly             Lz            Pxx            Pyy            Pzz            Pxy            Pxz            Pyz           Volume    
        66   300            0.89424086    -0.29790531     0.59633555     185.0826       105.7344       172.5444       1936.1799      2288.2198      5953.5316     -915.01976     -777.79983      338.82374      3376624.5    
      1000   299.15114      0.89171057     0.6376395      1.5293501      187.01314      106.86303      177.01804      1220.0525      746.8448       3154.4328     -172.95873     -345.24868     -142.74555      3537668.6    
      2000   299.55287      0.89290806     0.65918426     1.5520923      188.05951      107.29145      179.69589      244.94821     -82.016403      1205.7198     -65.899354     -182.33029     -27.678196      3625755.8    
      3000   299.72744      0.89342841     0.66941451     1.5628429      188.49172      107.38955      181.16577      54.398617      47.026         353.73159     -82.925292     -70.467215     -172.82379      3667165      
      4000   299.87966      0.89388215     0.67200315     1.5658853      188.63404      107.41023      181.76147     -214.53727     -353.09135      135.72612     -132.22037     -207.2471      -128.9693       3682710      
      5000   300.13398      0.89464023     0.67503084     1.5696711      188.75902      107.42384      181.99131     -77.43922      -78.869194      64.852979     -22.274742      0.46428072    -76.491933      3690277.6    
      6000   300.27024      0.8950464      0.6748825      1.5699289      188.79549      107.44555      181.99241      383.63696     -5.3990097      3.3259899     -70.275156     -126.42354     -41.462017      3691758.9    
      7000   299.91246      0.89397993     0.67615869     1.5701386      188.81427      107.43446      181.9949      -25.048655     -107.82245      34.960608      87.601957     -62.419121      54.688307      3691795.4    
      8000   300.06104      0.89442282     0.67734061     1.5717634      188.82598      107.42832      182.07591      167.8975      -24.243888     -37.309229     -62.910228      38.994074      62.494398      3693456.7    
      9000   300.9089       0.89695012     0.67295601     1.5699061      188.73905      107.41974      182.0693       72.153589      66.476698      211.93189     -30.833636      80.321607      101.24745      3691327.6    
     10000   299.1125       0.8915954      0.67502447     1.5666199      188.85254      107.44021      182.13895     -139.09378      28.0463       -81.055427     -123.88399      20.714478      53.818667      3695664.2    
     11000   299.73874      0.89346209     0.67463632     1.5680984      188.85563      107.4577       182.05601     -52.44521      -137.69641      119.05594     -102.68106      14.885307      47.995424      3694643.1    
     12000   300.54321      0.89586005     0.6731105      1.5689706      188.73718      107.38983      181.96338      487.05004      230.78493      157.51128     -99.085571     -68.115429     -112.81114      3688116.1    
     13000   300.7302       0.89641743     0.67319053     1.569608       188.81464      107.4294       182.03138      344.16048      109.36942      67.428003      32.131035      15.40293       16.219627      3692368.9    
     14000   299.64481      0.8931821      0.67600509     1.5691872      188.82858      107.42303      182.0403      -15.725563     -210.59616     -16.844477     -107.73402      51.585281      94.790899      3692603.3    
     15000   299.6498       0.89319697     0.67313426     1.5663312      188.70211      107.4301       182.0828      -4.0498255     -44.966986     -13.421077     -52.83274       85.18994      -109.22326      3691234.6    
     16000   299.75297      0.89350452     0.67572065     1.5692252      188.80339      107.48082      182.03883     -33.770373     -51.871867     -114.19493     -155.98755     -48.297062      66.720151      3694067.3    
     17000   300.7842       0.89657842     0.67674362     1.573322       188.77408      107.4617       182.0194       30.153148      19.923928     -47.469101      314.73964      84.432914      71.432204      3692442.4    
     18000   299.95743      0.89411397     0.67370981     1.5678238      188.85257      107.42405      181.96838     -16.355045     -160.03674     -23.883235     -67.564534      19.986247      16.884298      3691648.6    
     19000   300.6516       0.89618314     0.6738866      1.5700697      188.86327      107.40668      182.03885      42.00733       95.5482       -99.154363      24.75801      -51.259036      100.29495      3692690.3    
     20000   300.0387       0.8943562      0.67727334     1.5716295      188.85142      107.41433      182.17154     -225.31188      196.32153      68.003502     -99.723996     -98.949634     -13.443621      3695413.3    
     21000   299.35761      0.89232603     0.67527299     1.567599       188.75718      107.43211      182.09331      171.64505      59.034283     -99.925016     -129.59108     -21.36674       73.108423      3692594.1    
     22000   300.21501      0.89488177     0.67616416     1.5710459      188.82344      107.46608      182.06235     -50.43781      -69.661105     -22.257982     -69.504324     -31.68908      -52.991662      3694430.2    
     23000   299.90418      0.89395525     0.67765528     1.5716105      188.83872      107.44896      182.0019      -79.306571     -127.14328      165.10895      60.60756      -111.63648     -39.215666      3692914      
     24000   299.5457       0.89288668     0.67699725     1.5698839      188.76205      107.45259      181.97275      30.888921     -89.085257      98.740728     -69.935359      193.27457      76.144989      3690947.9    
     25000   300.51495      0.89577584     0.67560498     1.5713808      188.85696      107.43642      182.01277     -280.46663      302.17542     -49.355684      8.6724844      73.369155     -132.18498      3693060.1    
     26000   300.28399      0.89508739     0.67802799     1.5731154      188.71562      107.47925      182.11695      92.230348     -230.25205     -145.2457       85.13672      -58.231816     -46.888861      3693880.4    
     27000   299.78196      0.89359093     0.67606666     1.5696576      188.65417      107.47671      182.02059      45.233385      226.17864     -132.49265      41.751036     -11.240277      87.982763      3690636.6    
     28000   300.15416      0.89470038     0.67667597     1.5713764      188.81634      107.48278      182.03842     -232.01599     -160.85624     -59.98015       80.085046     -81.360134     -60.039095      3694379.6    
     29000   300.19595      0.89482494     0.67646613     1.5712911      188.80748      107.43325      182.06071      413.36773      392.57377      44.482562     -63.121527      142.59481      20.749136      3692956      
     30000   300.28454      0.89508903     0.67758708     1.5726761      188.88456      107.45531      182.10681      77.44174       24.263186     -215.34584      104.42509     -141.75849      35.224417      3696157.8    
     31000   300.04796      0.89438382     0.67604415     1.570428       188.76966      107.46783      181.95507      297.449       -3.7867571      31.679694     -113.70696     -14.359561      52.543841      3691261.8    
     32000   299.15155      0.8917118      0.67520859     1.5669204      188.79829      107.46932      182.04585     -193.0329       160.38815     -90.20136       271.07091      74.546065      29.688485      3693714.4    
     33000   300.43469      0.89553658     0.67799139     1.573528       188.73962      107.47784      181.99001      153.16284     -23.011525      34.966703      177.78345      112.74231     -14.351027      3691726.8    
     34000   300.21034      0.89486784     0.67593208     1.5707999      188.75871      107.43895      181.86502     -29.377344      62.988097     -85.707418     -6.4276547     -39.832106     -80.341006      3688229.5    
     35000   300.22796      0.89492036     0.67691876     1.5718391      188.78578      107.46085      181.97074     -130.62944     -67.813544     -37.50117      -145.4821       36.352644     -34.780664      3691654.8    
     36000   299.99761      0.89423373     0.67548312     1.5697169      188.8799       107.47626      181.95938     -92.069443      148.18126      3.6394708     -62.865255      63.651672     -6.9918236      3693794.6    
     37000   300.32926      0.89522232     0.67565709     1.5708794      188.71674      107.41581      181.99197     -10.515232     -80.855973     -164.41544     -158.96538     -34.476644      37.082086      3689188.7    
     38000   300.10071      0.89454106     0.67686614     1.5714072      188.8243       107.41172      182.09423     -333.83317     -165.49437     -76.4157       -309.22081      40.405622      94.251773      3693224.6    
     39000   300.54805      0.89587449     0.67488057     1.5707551      188.84142      107.39297      182.00915     -83.542186     -110.58917     -102.15268     -210.75134      46.491518      82.887364      3691189.5    
     40000   300.02766      0.8943233      0.67456454     1.5688878      188.76906      107.41092      182.08547      197.7301      -87.467079     -138.14541      72.326025     -12.983386      83.04631       3691938.9    
     41000   300.42726      0.89551442     0.67598232     1.5714967      188.8197       107.44536      182.04581      153.64128      230.66991      88.626262     -123.76365      39.31764      -86.438187      3693308.9    
     42000   300.18925      0.89480498     0.67377769     1.5685827      188.74709      107.43684      182.02927      160.03076     -13.834525     -47.846257     -29.906398     -6.9277437     -27.164733      3691260.8    
     43000   300.16019      0.89471836     0.67499552     1.5697139      188.78362      107.45027      182.00389     -119.81456     -128.77371      52.60871      -70.714371     -115.9509       118.55425      3691921.9    
     44000   299.71975      0.8934055      0.67454688     1.5679524      188.681        107.47578      182.05346      39.267152     -187.85755      113.3157       23.366737     -47.548159      23.528179      3691796.1    
     45000   299.91098      0.89397551     0.67675785     1.5707334      188.77461      107.43         181.94276     -299.36531     -288.10395     -170.12476     -251.58467     -71.353711      105.09946      3689809.3    
     46000   299.69575      0.89333396     0.67387092     1.5672049      188.72585      107.40033      182.01744      68.456181     -310.73962      139.98317      104.05156     -59.496336     -18.486125      3689351.5    
     47000   299.84822      0.89378842     0.67416485     1.5679533      188.74092      107.42026      182.04689      247.18481      373.24632      13.115169      23.30118       35.417114     -97.874005      3690927.7    
     48000   299.85234      0.8938007      0.67587965     1.5696803      188.82761      107.42563      182.03499      75.509312     -86.064447      38.498771      8.9665731     -25.924403      167.59193      3692566.4    
     49000   299.61266      0.89308628     0.67616382     1.5692501      188.74792      107.4048       182.03495     -59.996566      190.05036     -258.65902      32.939656      44.501911     -75.558155      3690291      
     50000   299.54629      0.89288844     0.6755794      1.5684678      188.80866      107.44838      181.92888     -158.22627      201.49742     -41.826342     -0.2396972     -155.4278       2.9367824      3690824.7    
     50066   300.15078      0.8946903      0.67420195     1.5688923      188.82297      107.46697      181.92551     -10.655466      64.828491      210.97228     -40.857641     -131.48732      53.938005      3691674.7    
Loop time of 761.945 on 256 procs for 50000 steps with 414720 atoms

Performance: 5.670 ns/day, 4.233 hours/ns, 65.622 timesteps/s, 27.215 Matom-step/s
99.4% CPU use with 256 MPI tasks x no OpenMP threads

MPI task timing breakdown:
Section |  min time  |  avg time  |  max time  |%varavg| %total
---------------------------------------------------------------
Pair    | 338.25     | 343.4      | 351.58     |  12.2 | 45.07
Bond    | 15.176     | 15.444     | 15.9       |   3.2 |  2.03
Kspace  | 103.28     | 114.52     | 123.23     |  36.6 | 15.03
Neigh   | 167.37     | 171.18     | 174.38     |  13.0 | 22.47
Comm    | 75.237     | 87.872     | 101.09     |  61.8 | 11.53
Output  | 0.021206   | 0.039782   | 0.054497   |   4.8 |  0.01
Modify  | 19.241     | 24.335     | 27.904     |  34.4 |  3.19
Other   |            | 5.149      |            |       |  0.68

Nlocal:           1620 ave        1644 max        1596 min
Histogram: 2 7 20 45 52 58 38 24 8 2
Nghost:        8469.58 ave        8581 max        8380 min
Histogram: 11 17 40 44 42 43 27 23 6 3
Neighs:         383148 ave      390961 max      377327 min
Histogram: 13 24 28 53 45 45 21 18 7 2

Total # of neighbors = 98085975
Ave neighs/atom = 236.51132
Ave special neighs/atom = 9.4
Neighbor list builds = 6916
Dangerous builds = 1
unfix           1
undump          1

variable	yzv 	equal	yz
variable	yzzo	equal	${yzv}
variable	yzzo	equal	-6.30576165965616

#========================DEFORMATION
reset_timestep  0
dump            1 all custom ${dump_steps} shear.*.dump element id mol type x y z
dump            1 all custom 30000 shear.*.dump element id mol type x y z
dump_modify     1 element ${ele_string}
dump_modify     1 element C C H
compute         cc1 all chunk/atom molecule
compute         myChunk all com/chunk cc1

fix             1 all nph x ${patm} ${patm} ${pdamp}  y ${patm} ${patm} ${pdamp} z ${patm} ${patm} ${pdamp} xy ${patm} ${patm} ${pdamp} fixedpoint ${xcm} ${ycm} ${zcm}
fix             1 all nph x 1 ${patm} ${pdamp}  y ${patm} ${patm} ${pdamp} z ${patm} ${patm} ${pdamp} xy ${patm} ${patm} ${pdamp} fixedpoint ${xcm} ${ycm} ${zcm}
fix             1 all nph x 1 1 ${pdamp}  y ${patm} ${patm} ${pdamp} z ${patm} ${patm} ${pdamp} xy ${patm} ${patm} ${pdamp} fixedpoint ${xcm} ${ycm} ${zcm}
fix             1 all nph x 1 1 1000  y ${patm} ${patm} ${pdamp} z ${patm} ${patm} ${pdamp} xy ${patm} ${patm} ${pdamp} fixedpoint ${xcm} ${ycm} ${zcm}
fix             1 all nph x 1 1 1000  y 1 ${patm} ${pdamp} z ${patm} ${patm} ${pdamp} xy ${patm} ${patm} ${pdamp} fixedpoint ${xcm} ${ycm} ${zcm}
fix             1 all nph x 1 1 1000  y 1 1 ${pdamp} z ${patm} ${patm} ${pdamp} xy ${patm} ${patm} ${pdamp} fixedpoint ${xcm} ${ycm} ${zcm}
fix             1 all nph x 1 1 1000  y 1 1 1000 z ${patm} ${patm} ${pdamp} xy ${patm} ${patm} ${pdamp} fixedpoint ${xcm} ${ycm} ${zcm}
fix             1 all nph x 1 1 1000  y 1 1 1000 z 1 ${patm} ${pdamp} xy ${patm} ${patm} ${pdamp} fixedpoint ${xcm} ${ycm} ${zcm}
fix             1 all nph x 1 1 1000  y 1 1 1000 z 1 1 ${pdamp} xy ${patm} ${patm} ${pdamp} fixedpoint ${xcm} ${ycm} ${zcm}
fix             1 all nph x 1 1 1000  y 1 1 1000 z 1 1 1000 xy ${patm} ${patm} ${pdamp} fixedpoint ${xcm} ${ycm} ${zcm}
fix             1 all nph x 1 1 1000  y 1 1 1000 z 1 1 1000 xy 1 ${patm} ${pdamp} fixedpoint ${xcm} ${ycm} ${zcm}
fix             1 all nph x 1 1 1000  y 1 1 1000 z 1 1 1000 xy 1 1 ${pdamp} fixedpoint ${xcm} ${ycm} ${zcm}
fix             1 all nph x 1 1 1000  y 1 1 1000 z 1 1 1000 xy 1 1 1000 fixedpoint ${xcm} ${ycm} ${zcm}
fix             1 all nph x 1 1 1000  y 1 1 1000 z 1 1 1000 xy 1 1 1000 fixedpoint 85.02833104526 ${ycm} ${zcm}
fix             1 all nph x 1 1 1000  y 1 1 1000 z 1 1 1000 xy 1 1 1000 fixedpoint 85.02833104526 49.325075314052 ${zcm}
fix             1 all nph x 1 1 1000  y 1 1 1000 z 1 1 1000 xy 1 1 1000 fixedpoint 85.02833104526 49.325075314052 86.2722299428765
#fix             1 all nph tri ${patm} ${patm} ${pdamp}
fix             2 all ave/time 2 100 ${thermo} v_strain v_sxx v_syy v_szz v_sxz v_syz v_sxy v_pe file output.dat
fix             2 all ave/time 2 100 5000 v_strain v_sxx v_syy v_szz v_sxz v_syz v_sxy v_pe file output.dat
fix             6 all ave/time 2 100 ${thermo} c_myChunk[*] file center.dat mode vector
fix             6 all ave/time 2 100 5000 c_myChunk[*] file center.dat mode vector
fix             7 all print ${thermo} "${xhi} ${xlo} ${yhi} ${ylo} ${zhi} ${zlo} ${xy} ${xz} ${yz}" screen no file box_parameters.dat
fix             7 all print 5000 "${xhi} ${xlo} ${yhi} ${ylo} ${zhi} ${zlo} ${xy} ${xz} ${yz}" screen no file box_parameters.dat


#======================== load
fix             3 all deform 1 yz erate ${srate} units box remap x flip no
fix             3 all deform 1 yz erate 2e-07 units box remap x flip no
run             ${steps}
run             1500000
PPPM initialization ...
  using 12-bit tables for long-range coulomb (../kspace.cpp:342)
  G vector (1/distance) = 0.29202899
  grid = 32 32 60
  stencil order = 6
  estimated absolute RMS force accuracy = 3.4436319
  estimated relative force accuracy = 0.010370395
  using double precision KISS FFT
  3d grid and FFT values/proc = 2310 256
Generated 3 of 3 mixed pair_coeff terms from arithmetic mixing rule
Per MPI rank memory allocation (min/avg/max) = 16.4 | 16.41 | 16.41 Mbytes
   Step          Temp          KinEng         PotEng         TotEng           Lx             Ly             Lz            Pxx            Pyy            Pzz            Pxy            Pxz            Pyz           Volume    
         0   300.15078      0.8946903      0.67420195     1.5688923      188.82297      107.46697      181.92551     -10.655466      64.828491      210.97228     -40.857641     -131.48732      53.938005      3691674.7    
      1000   300.19846      0.89483244     0.67796401     1.5727965      188.826        107.42247      182.03024      373.04061      270.32267      49.445358      52.691901      23.861616     -15.339872      3692329.7    
      2000   299.55346      0.89290981     0.67492684     1.5678366      188.7434       107.41747      182.04599     -175.49018      314.64647      87.343015      20.684827     -71.212999     -42.772439      3690861.9    
      3000   299.72256      0.89341385     0.67245204     1.5658659      188.75364      107.4486       182.04095      183.13723      241.53681     -54.965517     -0.63467844    -90.059945     -32.037315      3692029.8    
      4000   300.71175      0.89636246     0.67365148     1.5700139      188.8498       107.4534       182.10019      50.89202      -60.763966     -176.25051     -40.337867     -182.17603      151.03884      3695277.8    
      5000   299.4078       0.89247562     0.67366976     1.5661454      188.82466      107.44762      182.00763     -222.46405     -121.70638      31.851169     -20.185297     -25.8915        47.169347      3692709.2    
      6000   300.23112      0.89492978     0.67631871     1.5712485      188.76766      107.42757      182.16121     -48.143118     -20.047814     -173.9436       42.175089     -67.402439     -23.689789      3694019.9    
      7000   300.54754      0.89587295     0.67630723     1.5721802      188.78636      107.4317       182.04151      201.5775       297.71351      86.460905      158.85638     -73.024742     -43.693558      3692100.4    
      8000   300.16002      0.89471784     0.67470147     1.5694193      188.78285      107.44125      181.95721     -87.571058      26.31728      -16.465991      97.550169     -22.581889      17.633558      3690650.1    
      9000   299.90444      0.89395602     0.67645224     1.5704083      188.83495      107.45969      182.08476      97.113251     -109.64789     -243.26746      107.05378     -16.467277     -51.027134      3694890.4    
     10000   300.15898      0.89471474     0.67505521     1.56977        188.75323      107.46451      182.04654      343.08852      399.98168      77.516534      54.841481      175.26308      96.756539      3692681.9    
     11000   300.07815      0.89447381     0.6756347      1.5701085      188.74166      107.43834      182.10794      204.32612      224.80236     -128.21151      41.252172      104.86712      51.878761      3692801.5    
     12000   300.00817      0.89426521     0.67429629     1.5685615      188.75024      107.4169       182.00301      69.287555      182.99818     -92.057378     -12.678654     -29.363689     -143.51272      3690104.7    
     13000   299.80851      0.89367005     0.67416628     1.5678363      188.80066      107.43249      182.02948      19.191478     -39.001608      120.90196      67.203048      68.190355      44.422778      3692163.2    
     14000   300.55701      0.89590119     0.67521914     1.5711203      188.8564       107.47312      181.99181     -38.968417     -150.02651      120.94103     -2.7632073     -10.271625      210.43107      3693885.1    
     15000   300.09581      0.89452644     0.67390234     1.5684288      188.77603      107.39693      182.05823      331.97634      1.0376896      23.376454      56.19759      -5.2693618      113.206        3691042.4    
     16000   299.95134      0.89409582     0.67558982     1.5696856      188.74665      107.42325      182.1469       198.09638      108.16156     -143.98572     -106.69015      106.86731      41.676115      3693170      
     17000   300.65244      0.89618567     0.67433171     1.5705174      188.84184      107.4735       182.04484     -122.47018     -265.82752     -197.05283     -29.277579      15.560576     -53.502933      3694690      
     18000   299.60427      0.89306127     0.67564758     1.5687088      188.81041      107.44835      182.02703     -207.56168     -102.97957      133.65152      111.28549      84.184754     -55.944829      3692849      
     19000   300.12399      0.89461044     0.67420087     1.5688113      188.80738      107.46011      181.87233      247.79092      78.208524      102.93354      196.49728      79.379764      10.988533      3690055.3    
     20000   300.1503       0.89468887     0.67556769     1.5702566      188.7597       107.42887      182.08277     -72.566985     -102.36815     -190.3401       212.98639      109.74566      48.413239      3692318.2    
     21000   300.01444      0.89428389     0.67627125     1.5705551      188.79638      107.45432      182.08073      304.77948     -314.59085      21.20475      -287.54311      104.02672      64.727402      3693869.4    
     22000   300.62368      0.89609994     0.67325682     1.5693568      188.78505      107.43137      181.9821       98.120904     -144.0662      -106.68777     -102.0432       41.539221     -57.884868      3690858.2    
     23000   300.09592      0.89452678     0.67518214     1.5697089      188.75744      107.37912      182.00969      156.00853      256.70297      7.600111      -12.019979      64.104625     -32.797522      3689083.1    
     24000   300.08933      0.89450713     0.67651294     1.5710201      188.71563      107.41906      182.13625      27.07233      -116.87515      26.254257     -108.04737     -104.10212      70.509343      3692203.4    
     25000   299.88347      0.89389351     0.6750901      1.5689836      188.79738      107.38587      182.11685     -101.52556      171.95771      45.198394     -160.20009     -38.618385      106.45003      3692267.9    
     26000   299.4151       0.8924974      0.67550098     1.5679984      188.77782      107.45011      182.04482     -115.12814     -243.57322     -343.76923      19.788293     -73.103738     -18.217882      3692633.1    
     27000   300.10857      0.89456449     0.67349259     1.5680571      188.7944       107.4481       182.03932     -62.570269     -130.51253      204.33812     -143.0564      -5.5611319     -87.047925      3692776.8    
     28000   299.74147      0.89347024     0.67372291     1.5671931      188.93716      107.42841      181.95259     -403.74783     -264.08354     -7.7846275     -4.4121244     -11.604839     -67.673574      3693131.6    
     29000   300.3438       0.89526567     0.6756482      1.5709139      188.82096      107.42015      182.07582     -56.436017     -317.623       -7.185837      -122.64447     -138.95158     -0.76490405     3693075.8    
     30000   299.89057      0.89391468     0.67560568     1.5695204      188.69921      107.44223      181.99575     -0.8617418     -113.07893      122.31134      50.607848      1.8049968     -45.638009      3689829.7    
     31000   300.51648      0.89578037     0.67597991     1.5717603      188.82614      107.44871      182.04916      68.678085      113.01878     -181.99538     -74.781588      66.674587      61.311186      3693618.1    
     32000   300.35141      0.89528834     0.67754463     1.572833       188.80913      107.47628      182.12826      209.51883      52.18344      -67.351182     -107.001       -88.417669      77.82012       3695838.4    
     33000   300.47805      0.89566585     0.67672409     1.5723899      188.76386      107.42183      182.07371      223.54168      144.86945      38.852661     -241.51303      126.47992     -51.228568      3691974.1    
     34000   299.96912      0.89414881     0.67638912     1.5705379      188.86485      107.41192      182.13366     -31.660769     -108.36514     -158.40549      50.200632     -109.10349     -182.12018      3694824.7    
     35000   299.95929      0.8941195      0.67571032     1.5698298      188.76744      107.44024      181.9751       625.89357     -14.615035      385.39222     -47.814816      49.026707     -151.39257      3690677      
     36000   300.12728      0.89462025     0.67513106     1.5697513      188.82896      107.42073      182.04626      110.38035     -68.955915     -50.652479      70.331397      167.53236     -162.83553      3692652.8    
     37000   300.46243      0.89561928     0.67632572     1.571945       188.79555      107.42169      182.04232     -548.17926     -285.63437      227.34511      158.84498      119.11065     -78.166694      3691952.4    
     38000   300.23539      0.89494252     0.67562242     1.5705649      188.8664       107.41768      182.07567     -50.356553     -143.48577     -67.901988     -159.24106      145.47606     -82.658134      3693876.7    
     39000   299.73199      0.89344196     0.67621757     1.5696595      188.79242      107.4254       182.16974     -290.59435     -123.77149      2.6837183     -112.29936     -138.22981     -11.373261      3694603      
     40000   300.3579       0.8953077      0.67552932     1.570837       188.78527      107.42386      182.10052      99.386969     -11.244738     -9.967162       72.772954     -20.507645     -43.036789      3693006      
     41000   299.9595       0.89412014     0.67385705     1.5679772      188.85964      107.4338       182.03692      27.793227     -104.47817     -131.02003      178.44244      14.340006     -52.911821      3693512.4    
     42000   300.32709      0.89521585     0.67429892     1.5695148      188.84124      107.42384      182.04747     -327.97072     -336.30198     -0.79314639    -82.636998     -77.985592     -16.866797      3693024.4    
     43000   300.68161      0.89627261     0.6763817      1.5726543      188.75878      107.41731      182.07894      71.510393      127.58557     -310.08869     -211.00879     -140.89398      27.063958      3691825.3    
     44000   300.35783      0.89530749     0.6747936      1.5701011      188.77464      107.40983      182.03073      56.673141     -159.38551     -96.129746     -188.09786     -163.53885     -180.11286      3690901.1    
     45000   300.31553      0.89518138     0.67594865     1.57113        188.826        107.41525      182.03608     -31.79636      -119.48509     -20.611651      1.0151807      55.323773     -25.044133      3692199.9    
     46000   299.90327      0.89395253     0.67564677     1.5695993      188.76601      107.44052      182.15166     -173.47577      217.39248     -159.82256      27.003197      43.477035      102.60708      3694239.5    
     47000   300.00514      0.89425619     0.67478741     1.5690436      188.91572      107.39354      181.99548      19.970092     -137.17415      144.24297      126.60528      5.3625058      53.584258      3692384.1    
     48000   299.7699       0.89355497     0.67368232     1.5672373      188.7927       107.38982      182.02682     -150.1667       503.71086     -73.716405      188.11815     -56.820899     -109.16623      3690487.2    
     49000   299.75487      0.89351018     0.67407276     1.5675829      188.88819      107.43748      182.01262     -377.33865     -4.953266       246.35691      80.171042      76.776439     -80.308009      3693704.2    
     50000   299.71912      0.89340361     0.67789514     1.5712987      188.86393      107.45557      182.12934      188.41732      213.83012      26.299639     -21.579362      62.699079     -65.750985      3696220.4    
     51000   300.29372      0.89511637     0.67547304     1.5705894      188.74346      107.48573      182.11233      62.158739     -162.93011     -76.930472     -27.890827     -50.324073      51.375941      3694554.6    
     52000   300.00455      0.89425442     0.67801606     1.5722705      188.82331      107.44232      182.05507      366.89676      34.620967      128.73367      113.54311      106.22276     -73.480782      3693463      
     53000   300.12275      0.89460676     0.67403281     1.5686396      188.70049      107.42352      182.09414      22.468336     -53.115657     -97.066072     -57.744663     -101.94836     -46.915695      3691206.9    
     54000   300.62136      0.89609302     0.67445573     1.5705488      188.80468      107.39461      182.1212       37.768116      66.270977      17.207397      113.24919     -70.526725      0.78104023     3692799.5    
     55000   299.47215      0.89266745     0.67572434     1.5683918      188.81895      107.39347      182.03936      165.05767      119.64922      13.328096      76.036014     -9.4622885     -177.23179      3691380.1    
     56000   300.0353       0.89434607     0.67101042     1.5653565      188.774        107.37096      181.90629      201.23715     -39.367278      28.432853     -51.59962       128.36588     -164.77793      3687030.3    
     57000   300.19656      0.89482676     0.67513081     1.5699576      188.79105      107.44675      182.10045     -78.276929     -223.46551      31.6026       -104.53518      23.970744     -7.8919148      3693904.9    
     58000   299.77272      0.8935634      0.6734578      1.5670212      188.8629       107.42461      182.08357      170.24374      178.73134      27.672413      115.90939      28.815825     -23.642851      3694206.7    
     59000   300.18579      0.89479467     0.6745729      1.5693676      188.81449      107.40761      182.12707      163.07669      150.34483      36.962155     -279.88087     -86.814141     -21.092802      3693557.3    
     60000   300.55744      0.89590249     0.67417793     1.5700804      188.7794       107.40126      182.04869     -58.531         181.52721      54.072799     -116.72798     -124.43269     -213.2903       3691063.8    
     61000   300.22829      0.89492133     0.67521837     1.5701397      188.90494      107.39653      182.10559     -104.95268      151.65874     -115.58958      29.938295     -55.601018     -42.894108      3694510      
     62000   299.45804      0.89262539     0.67546303     1.5680884      188.82083      107.40964      182.05134     -18.937527     -353.61367     -57.06655      -52.135364      0.4445759      49.734593      3692215.4    
     63000   299.29125      0.89212822     0.67432107     1.5664493      188.7935       107.43807      182.02929      137.05489      10.371253      29.271495     -14.319621      69.186815     -119.04095      3692211.1    
     64000   300.0775       0.89447187     0.67674313     1.571215       188.83655      107.43448      182.16631     -21.972221     -71.175347     -206.84256     -22.516128     -12.018473     -0.70012945     3695709.3    
     65000   299.80999      0.89367447     0.67433374     1.5680082      188.77337      107.39563      182.12895      133.44457     -424.12561     -110.45845     -3.3111626      39.347061     -33.19194       3692379.2    
     66000   299.85697      0.89381453     0.67567726     1.5694918      188.80892      107.38905      182.05437      79.446065      196.45652      89.275838      49.034391     -35.452117      108.65967      3691336.5    
     67000   300.30561      0.89515181     0.67430414     1.569456       188.87136      107.378        182.07627     -46.36629      -57.270084      86.069089      24.286549      31.295741     -66.42293       3692621.1    
     68000   299.47375      0.89267221     0.6750257      1.5676979      188.88006      107.3864       182.05026      171.18016      154.29015      28.220942      255.68959     -59.646483     -155.6719       3692552.7    
     69000   300.44629      0.89557115     0.67662831     1.5721995      188.84841      107.42786      182.07885     -388.6789       7.5900997     -84.591075     -302.62395     -33.026756     -127.32896      3693939.2    
     70000   300.65269      0.8961864      0.67449317     1.5706796      188.8327       107.46356      182.08782      38.215091     -175.66837     -103.51724      92.914936      40.329324     -68.596296      3695041.4    
     71000   300.50269      0.89573929     0.67526464     1.5710039      188.77378      107.42679      182.14705      469.10595      29.250228      32.207111      215.1846       88.931125     -45.436725      3693825.7    
     72000   299.35781      0.89232661     0.67759307     1.5699197      188.7973       107.44254      182.05163     -118.96378     -70.020648      23.41259      -4.6919403      35.525718     -128.84289      3692892.1    
     73000   299.9733       0.89416127     0.67783544     1.5719967      188.84415      107.41191      182.07015      33.800693      57.170802     -75.445397      242.22519      90.83609      -84.500515      3693131      
     74000   300.5118       0.89576643     0.6766332      1.5723996      188.91946      107.39793      182.13475      427.78995      210.431        218.26066     -126.78097      59.629996     -149.47516      3695433.6    
     75000   300.38688      0.89539407     0.676581       1.5719751      188.8413       107.44709      182.09528     -181.80832     -53.695502     -218.3282      -111.02324     -84.034059     -126.82281      3694795      
     76000   299.11212      0.89159427     0.67629876     1.567893       188.81408      107.50457      181.99999      496.5246      -288.9529       123.10082     -29.629368      42.260906     -53.691381      3694304.2    
     77000   299.74761      0.89348852     0.67375725     1.5672458      188.83123      107.39989      182.0889      -56.541271     -72.777134     -14.660327      136.70041     -40.227917      7.9314265      3692845.5    
     78000   299.34807      0.89229758     0.67252504     1.5648226      188.80575      107.41826      182.07975      123.43929     -20.344909      191.68499     -81.887677      33.893836     -42.329869      3692793.1    
     79000   299.80878      0.89367087     0.67606656     1.5697374      188.88256      107.42198      182.16074     -70.486604     -8.1365777     -58.335357      83.00251      -106.65754     -52.697958      3696066.6    
     80000   299.39774      0.89244564     0.67509473     1.5675404      188.78668      107.39231      182.1036       250.43176     -1.6390262      92.388761     -7.47252       -32.635102     -168.09086      3692011.7    
     81000   300.38274      0.89538174     0.6746167      1.5699984      188.70983      107.43975      181.96374      328.08934      9.7038673      0.15591361    -69.527784     -93.877673     -54.027805      3689303.2    
     82000   299.89792      0.89393659     0.67559713     1.5695337      188.70771      107.43376      182.05079     -175.12064     -342.68967     -119.40333     -77.729367     -122.48594     -137.75872      3690820.9    
     83000   300.02467      0.89431441     0.67735381     1.5716682      188.81517      107.43528      182.17583      288.44271     -91.503773     -24.47927      -8.374706       141.80231     -57.800521      3695511.6    
     84000   299.66192      0.8932331      0.67594253     1.5691756      188.85722      107.42522      182.07753      83.237149      281.22453     -75.310151     -20.452013     -143.94194     -114.31185      3693994.2    
     85000   300.23964      0.89495518     0.67592541     1.5708806      188.9533       107.38834      182.09278      15.365569     -113.04015      124.64048     -202.96314      74.125345      15.141761      3694914      
     86000   299.82034      0.89370534     0.6765135      1.5702188      188.76745      107.40312      182.08514      287.578        83.980127      208.9474       58.861438      15.761435     -207.83825      3691633.1    
     87000   300.67531      0.89625383     0.67699779     1.5732516      188.79272      107.42289      182.19321      35.175633     -6.4601412      3.0494674     -93.166187     -101.52204      87.392293      3694998.6    
     88000   299.87729      0.89387507     0.67611431     1.5699894      188.86548      107.4533       182.12055     -64.61802      -142.15438     -82.734172      158.49384     -242.60621     -22.434764      3695994.5    
     89000   299.04145      0.89138362     0.67544043     1.566824       188.80255      107.45903      182.09421      186.39755     -247.92882     -53.847299      47.547441     -113.52325      100.93291      3694425.4    
     90000   299.86287      0.8938321      0.67439868     1.5682308      188.7354       107.41095      182.06206     -3.8240324      177.9307      -52.792408     -265.6063      -142.35419     -87.221266      3690807.4    
     91000   299.47361      0.89267178     0.67586638     1.5685382      188.87724      107.41803      182.06917      10.990137      111.64232      40.861937     -10.663733      7.1461483     -164.38145      3693969      
     92000   300.53252      0.8958282      0.67860613     1.5744343      188.87102      107.39288      182.23791     -231.38866     -28.596612     -228.71507     -40.061924      61.723473     -55.144209      3696404.9    
     93000   299.99752      0.89423345     0.67627231     1.5705058      188.79528      107.41242      182.05118      100.25794     -84.394295      23.234558     -241.73487     -52.427015     -20.290932      3691808.2    
     94000   300.55718      0.89590171     0.67535748     1.5712592      188.83005      107.41798      182.07135     -185.73816     -128.26636     -37.712294      43.851865     -8.8581673     -153.38826      3693088.5    
     95000   299.98186      0.8941868      0.67511996     1.5693068      188.77322      107.41274      182.18377     -73.483356     -153.36701     -327.36437      71.691787     -128.68517     -19.561095      3694076.3    
     96000   300.07785      0.89447291     0.67638318     1.5708561      188.85188      107.40477      182.07196      236.58049      111.29406     -119.60759      19.6786       -13.549936     -78.070622      3693073.3    
     97000   299.67857      0.89328274     0.67618293     1.5694657      188.80569      107.42291      181.94641     -251.98752     -272.69392      181.78947     -123.40074      70.76767      -40.17925       3690247.7    
     98000   299.65197      0.89320344     0.67861645     1.5718199      188.84069      107.39549      182.14512     -41.355635      119.79147      82.713609      2.6547931     -12.021493     -31.647585      3694019.4    
     99000   300.04225      0.89436681     0.67506119     1.569428       188.87274      107.40247      182.13941     -158.63648      324.36747     -98.241492     -77.947553      37.330176     -196.69988      3694770.4    
    100000   300.12309      0.89460777     0.6763769      1.5709847      188.90964      107.38787      182.08532     -103.9743      -7.2721947     -27.253486      17.761649      60.42225      -236.2756       3693892.7    
    101000   300.83473      0.89672902     0.67540072     1.5721297      188.84741      107.42209      182.17938      18.36016       163.0636      -94.427247      67.860508      29.267795     -22.792109      3695760.6    
    102000   299.89417      0.89392539     0.67512643     1.5690518      188.88497      107.42052      182.10097     -157.77383     -77.410746     -107.94002     -134.03681     -128.40992     -142.33738      3694850.8    
    103000   299.77371      0.89356633     0.67571419     1.5692805      188.93877      107.44574      182.1191       330.55181      163.06379      52.54887      -0.56528952     2.3779912     -66.231191      3697139.1    
    104000   299.97189      0.89415708     0.67667352     1.5708306      188.87041      107.44753      182.13746     -254.9651       79.990287     -57.942174     -146.49334     -68.521484     -120.75998      3696235.5    
    105000   299.56028      0.89293015     0.67296531     1.5658955      188.79459      107.4201       182.09864      39.089379      415.20545      100.29087      101.35794      64.702722     -163.33031      3693021.5    
    106000   299.86487      0.89383805     0.67638667     1.5702247      188.8567       107.44066      182.068       -48.880652     -173.79967      66.453693      8.401108       126.77898     -60.211724      3694321.3    
    107000   299.92315      0.89401177     0.67566156     1.5696733      188.8672       107.44432      182.13964     -104.62264     -91.028233      188.09842      54.144855     -73.201096     -244.90255      3696106.5    
    108000   300.28673      0.89509553     0.67594493     1.5710405      188.83487      107.41559      182.09229     -102.89828     -106.31028     -175.65847      257.60466      19.800258     -100.94935      3693525.3    
    109000   300.21028      0.89486767     0.67554223     1.5704099      188.85469      107.38444      182.17669      50.394353      179.53857      94.497037      139.07667      25.824417     -94.72417       3694553.3    
    110000   299.12676      0.89163789     0.67733593     1.5689738      188.79032      107.41072      182.13286      161.5923      -117.58129      12.515837     -107.69945     -25.481143     -75.670418      3693309      
    111000   300.36478      0.8953282      0.67525411     1.5705823      188.76465      107.39458      182.10622      240.85977      85.656121     -11.640158     -157.413        21.548922     -202.75636      3691712.1    
    112000   299.7861       0.89360327     0.67507006     1.5686733      188.8046       107.44207      182.15028      46.945254     -88.125002      38.800121     -0.79184706    -41.808377     -39.282881      3695020      
    113000   299.32893      0.89224054     0.67754557     1.5697861      188.78744      107.414        182.11352     -371.53335     -107.90478      6.8839464      105.47806     -85.467632     -147.92648      3692973.2    
    114000   299.817        0.89369536     0.67396647     1.5676618      188.82926      107.43267      182.05785     -52.490682     -46.691518     -128.14366      171.86408     -91.468658     -128.27274      3693304.4    
    115000   299.98668      0.89420114     0.67461263     1.5688138      188.92312      107.38523      182.08757      134.21832      98.402513      135.65334      94.068101     -30.378607     -82.692772      3694111.1    
    116000   300.36591      0.89533156     0.67474173     1.5700733      188.85031      107.36863      182.17073     -201.81578     -245.52821     -272.11848      108.35216     -57.901367     -75.56451       3693802.7    
    117000   299.89879      0.89393916     0.67717922     1.5711184      188.85758      107.4148       182.13528      24.259176      209.80646      151.14371      30.816102     -100.44835     -195.16549      3694814.3    
    118000   300.2104       0.89486801     0.67763724     1.5725052      188.78927      107.40269      182.30272      106.99152     -239.65823     -97.51897       81.216238      87.282012     -180.20374      3696456.5    
    119000   299.86726      0.89384519     0.67476717     1.5686124      188.76643      107.41111      182.10246      53.203213      116.58441     -26.433554      310.06345      30.986437     -109.91378      3692238.9    
    120000   299.34416      0.89228593     0.67468042     1.5669664      188.85492      107.416        182.08685     -401.43202      62.050106      290.87515     -131.02221      91.745218     -35.628206      3693821      
    121000   300.28981      0.89510471     0.67659914     1.5717039      188.83834      107.403        182.12165      81.705826      120.56844     -37.221303     -65.23923       40.061764     -89.231557      3693755.6    
    122000   299.13846      0.89167278     0.67714687     1.5688196      188.84492      107.39796      182.25914      234.06597      292.77405     -62.855208     -12.47919       5.3644105     -107.90167      3696499.7    
    123000   300.31849      0.89519023     0.6759362      1.5711264      188.90511      107.46174      182.12946     -117.40821     -251.01452      27.255077     -98.577352     -37.556605     -81.527547      3697241.1    
    124000   300.10684      0.89455932     0.67585436     1.5704137      188.8484       107.45394      182.03821     -268.7196      -238.26856     -145.64231     -52.137841     -55.785332     -98.113736      3694011.2    
    125000   299.66558      0.89324403     0.67850426     1.5717483      188.74754      107.47189      182.09572     -8.4674741     -226.06923      94.155055     -26.946814     -32.681311     -150.86539      3693821.6    
    126000   299.73133      0.89344002     0.67718541     1.5706254      188.81174      107.43525      182.13151     -47.707685      12.594252     -97.39948       182.43255     -12.391964     -177.9734       3694544.4    
    127000   299.53798      0.89286365     0.67461367     1.5674773      188.83793      107.37781      182.15463     -91.041794     -73.17964      -82.426659     -69.196379     -107.41059     -157.14158      3693550      
    128000   300.56371      0.89592118     0.67753101     1.5734522      188.7329       107.35033      182.19795      186.98543      137.45567     -276.24037      175.28999      8.1870381     -166.69454      3691428.8    
    129000   299.51966      0.89280907     0.67741361     1.5702227      188.81743      107.38473      182.26269     -382.84175      58.395081     -19.602959      50.882222     -104.77395     -122.10355      3695578.1    
    130000   299.99136      0.89421511     0.6761863      1.5704014      188.81576      107.41197      182.14553     -318.98462     -195.6588      -78.306794     -31.119367      85.606712     -152.92865      3694106.9    
    131000   300.24946      0.89498446     0.67365793     1.5686424      188.85113      107.3979       182.11108     -200.54125      300.32878     -84.630039      118.37423      1.2427869     -95.500922      3693616      
    132000   300.45631      0.89560103     0.67653289     1.5721339      188.83188      107.41875      182.10555     -311.56706      80.103319      101.73375      122.34179     -2.115077      -175.11125      3693844.4    
    133000   299.86342      0.89383375     0.67649415     1.5703279      188.89077      107.37886      182.06937      329.59585      315.4959       213.29631     -80.193725     -175.2347      -145.82864      3692890.2    
    134000   300.28161      0.89508027     0.67639683     1.5714771      188.87569      107.41447      182.12518      197.66919      273.57653      175.3132      -63.894848     -0.87834848    -39.061633      3694952.6    
    135000   299.80984      0.89367402     0.6754861      1.5691601      188.79231      107.38048      182.12835      324.73337      402.72108      92.211974      202.76456      76.567034     -129.056        3692216.9    
    136000   300.32995      0.89522437     0.67597058     1.5711949      188.82352      107.41824      182.00855     -244.65043     -106.16327     -153.71136     -236.24305     -20.202528     -164.34108      3691695.6    
    137000   299.435        0.89255671     0.67677634     1.569333       188.86547      107.3902       182.09688      216.32687      234.25863      76.568478      46.355162     -77.146032     -147.8522       3693343.7    
    138000   300.55031      0.89588122     0.67587099     1.5717522      188.80018      107.40717      182.06693      68.896395      165.93901      380.29396      22.25957      -86.864579     -164.06433      3692043.2    
    139000   299.82623      0.89372288     0.67678869     1.5705116      188.89352      107.37673      182.30269      67.554513     -151.76589     -29.836057     -64.010385      128.63712     -181.01326      3697603.2    
    140000   299.56599      0.89294715     0.6773669      1.5703141      188.90297      107.38321      182.21337     -9.6039502     -179.94743     -39.103583      50.454998     -19.675602     -54.674545      3696199.3    
    141000   300.08671      0.89449933     0.67673196     1.5712313      188.9003       107.42303      182.03345      143.74595      148.93142      113.58954      189.08312     -13.919706     -195.09183      3693866.7    
    142000   300.16929      0.89474547     0.67555989     1.5703054      188.75818      107.41841      182.16969     -37.406504     -83.776803      90.501864     -18.152915     -52.797494     -246.67291      3693691.5    
    143000   301.23718      0.89792865     0.67546347     1.5733921      188.80591      107.4001       182.15724     -103.23273     -95.868694      134.17525      3.6914447      7.4364878     -200.35889      3693743.1    
    144000   299.77452      0.89356874     0.67535811     1.5689269      188.79145      107.38334      182.2077       14.551765      32.242982     -274.49127     -154.74502     -12.052052     -217.40233      3693907.2    
    145000   299.60057      0.89305024     0.6786405      1.5716907      188.85984      107.39494      182.28998      51.899386      233.92131      81.488543     -33.07095      -48.250328     -245.92542      3697313.1    
    146000   300.14638      0.89467718     0.67596258     1.5706398      188.94091      107.3952       182.14464     -11.818201     -237.20847      32.578362      189.49925     -53.329348      59.651505      3695960.2    
    147000   300.50826      0.89575589     0.67588982     1.5716457      188.84579      107.41152      182.03215     -324.05693      183.34781      52.060333      8.8994288      57.299518     -134.99039      3692379      
    148000   300.79662      0.89661544     0.67590872     1.5725242      188.79144      107.37998      182.19763      242.40818      82.026925      96.390712     -23.252012     -122.01109     -255.54973      3693587      
    149000   300.1892       0.89480484     0.67587871     1.5706835      188.82638      107.36278      182.14428     -166.86038     -149.38155     -106.42449     -230.03059     -93.17855      -166.78192      3692597.3    
    150000   300.55659      0.89589995     0.6757903      1.5716903      188.9244       107.38569      182.15069      94.115905      113.43978      232.21602      189.79746     -101.58227     -57.097209      3695432.6    
    151000   299.86783      0.89384688     0.67770992     1.5715568      188.80945      107.42892      182.27435     -64.22398       85.775935      131.68794     -109.02005      122.03467     -13.674057      3697178.9    
    152000   300.14913      0.8946854      0.67719436     1.5718798      188.87799      107.37845      182.29071      15.74569      -150.74329     -304.41908     -38.255879     -115.58945     -138.3326       3697115.5    
    153000   300.35922      0.89531162     0.67526857     1.5705802      188.922        107.39241      182.14923      184.33506      48.990129      329.62422      45.453668     -74.75635      -16.683281      3695587.3    
    154000   300.1995       0.89483552     0.67809997     1.5729355      188.96698      107.41305      182.31055      278.25609     -451.13247     -327.00807     -18.528273     -81.603847     -82.049986      3700452      
    155000   300.55113      0.89588366     0.67669865     1.5725823      188.78809      107.44764      182.24954     -56.347139     -333.25626      153.64109     -30.912767     -109.9452      -99.463757      3696901.8    
    156000   300.12822      0.89462307     0.67765378     1.5722769      188.83631      107.44726      182.19063     -96.329518     -236.56741     -86.572779     -104.74837     -42.654842     -25.519545      3696637.6    
    157000   300.03462      0.89434405     0.67811463     1.5724587      188.74843      107.43859      182.18825      11.157715     -12.315781      57.322101     -96.841194     -139.27787      36.092245      3694570.9    
    158000   299.95978      0.89412098     0.67683085     1.5709518      188.88182      107.40748      182.14731     -199.16447     -118.21959      75.117155     -60.43084       29.314212     -251.31294      3695281      
    159000   299.50828      0.89277514     0.67621054     1.5689857      188.89568      107.39679      182.22307     -58.122347      203.43522     -6.142896       84.095351     -1.4304793     -174.10039      3696721      
    160000   299.76484      0.89353989     0.67660481     1.5701447      188.8833       107.42325      182.2205       211.14061     -177.37703      0.64918444    -137.23771      106.71026     -297.21221      3697337.6    
    161000   300.0281       0.89432462     0.6766764      1.571001       188.87543      107.43514      182.1973      -178.20899     -185.39492      133.00805     -114.45282     -76.665229     -125.28675      3697121.7    
    162000   299.44209      0.89257785     0.67623235     1.5688102      188.87318      107.38803      182.19442      256.66504     -31.684708      134.72461     -40.121665     -243.8082      -319.16844      3695398.3    
    163000   299.81419      0.893687       0.67496118     1.5686482      188.92209      107.36702      182.06178     -260.40043      172.4671       53.888942     -100.81221     -111.48475     -289.48927      3692941.5    
    164000   300.52666      0.89581072     0.67643935     1.5722501      188.85081      107.36778      182.22917      291.91567     -118.63754     -106.15812      19.002542     -6.7003153     -95.513884      3694968.4    
    165000   300.09862      0.89453484     0.67636752     1.5709024      188.832        107.37971      182.24313     -42.899241      163.41941      40.909         24.612231     -8.3245528     -48.030007      3695293.8    
    166000   299.7683       0.89355022     0.67740654     1.5709568      188.86248      107.40333      182.16821     -168.57417      17.27589      -29.941218     -14.915847     -73.625154     -167.4648       3695183.6    
    167000   300.98156      0.8971667      0.67711906     1.5742858      188.80554      107.37052      182.20682     -5.8350137     -82.158065      64.399383     -60.487171      91.494376     -71.552846      3693724      
    168000   299.8266       0.89372399     0.67658611     1.5703101      189.02986      107.38741      182.13112     -101.65149     -168.38907      253.28259     -54.80474      -34.202872     -170.64929      3697157.5    
    169000   300.1661       0.89473596     0.67689799     1.571634       188.88091      107.43096      182.22717     -50.957122     -271.28858     -213.78053     -64.715867      1.4260898     -110.50823      3697691.4    
    170000   300.4907       0.89570353     0.6737622      1.5694657      188.75982      107.41111      182.13802      154.78991     -181.64502     -128.25345      83.028116      100.2723      -278.5126       3692830.5    
    171000   300.02842      0.89432558     0.67478538     1.569111       188.83908      107.36178      182.26979      95.846284      245.86302     -63.878289     -12.60938      -0.81886421    -206.87505      3695355.8    
    172000   300.40166      0.89543813     0.67605866     1.5714968      188.81026      107.37369      182.23195     -183.94942     -171.46872     -121.94683     -57.522084     -73.291134     -132.9624       3694434.7    
    173000   300.56581      0.89592743     0.67746724     1.5733947      188.80349      107.35099      182.27856     -243.51515      220.97539     -214.90948      73.712143     -113.55023     -65.236537      3694465.8    
    174000   299.70789      0.89337015     0.67563045     1.5690006      188.91066      107.37164      182.2411      -29.180823     -364.18387      93.008396      185.52949      10.188623     -131.64303      3696514.3    
    175000   300.37247      0.89535111     0.67410804     1.5694591      188.86844      107.35874      182.23427     -75.479448      96.548907     -85.853512     -193.68354     -91.304744     -172.32318      3695105.7    
    176000   299.64236      0.89317479     0.67519342     1.5683682      188.8984       107.38913      182.17192      125.04759      298.1915       177.29406     -16.056576      22.214556     -106.08197      3695473.1    
    177000   300.07448      0.89446287     0.675234       1.5696969      188.82672      107.41981      182.23748     -69.429362      256.22309      126.34788     -29.08072      -59.747148     -299.64986      3696455.9    
    178000   299.9863       0.89420003     0.67782746     1.5720275      188.9751       107.3874       182.27573      258.40811      292.60055      17.895301      27.846265     -134.99834     -160.32548      3699020.9    
    179000   299.65186      0.89320312     0.67713599     1.5703391      188.84023      107.39346      182.33179      199.54775      167.23406      105.00392     -135.36753     -75.885198     -179.32143      3697725.9    
    180000   299.18528      0.89181234     0.67706448     1.5688768      188.88146      107.39137      182.21211     -2.1861384     -22.586845      17.794696      83.810203     -27.263072     -57.853507      3696033.9    
    181000   300.09819      0.89453353     0.6781082      1.5726417      189.05727      107.39688      182.27179     -193.09119     -151.779        231.64258      83.347463     -147.10449     -97.972611      3700875.7    
    182000   300.16514      0.89473311     0.67884829     1.5735814      188.80578      107.40071      182.3252      -209.49506      33.821146      73.447731     -143.67058     -55.421813     -207.34435      3697167.7    
    183000   300.06549      0.89443606     0.67582558     1.5702616      188.83604      107.39589      182.16284     -134.2583      -138.42143     -51.33667      -3.3345447     -108.80596     -227.61923      3694301.4    
    184000   299.56208      0.89293551     0.67691635     1.5698519      188.83995      107.37539      182.15492      198.10793      8.9585833      166.23426     -242.49049     -209.41225     -157.91357      3693512.4    
    185000   299.84615      0.89378227     0.6766764      1.5704587      188.85906      107.42801      182.28533     -228.77031     -23.788542     -188.85313      74.322774     -128.94817     -141.31536      3698342.1    
    186000   300.66263      0.89621604     0.67730404     1.5735201      188.869        107.38484      182.18213      74.110332      91.94188       35.846184     -69.880952     -104.90755     -233.61871      3694957.5    
    187000   300.08794      0.89450298     0.67540571     1.5699087      188.82855      107.36256      182.20593     -55.47237       281.34264      29.880202      11.383334     -104.69224     -302.18659      3693882.1    
    188000   300.43414      0.89553495     0.67536703     1.570902       188.91462      107.36468      182.262       -37.647969      56.276279      82.967562      107.16873     -165.84215     -195.54137      3696776.2    
    189000   299.31185      0.89218963     0.67614522     1.5683348      188.77638      107.35591      182.19724      119.49884      282.56534      141.38836      153.16269     -113.41474     -253.04465      3692456.6    
    190000   300.65566      0.89619524     0.67682606     1.5730213      188.83697      107.3731       182.3892       380.71041      50.610716      27.351196      158.59678     -64.674799     -92.420223      3698125.3    
    191000   299.73449      0.89344941     0.67687009     1.5703195      188.9577       107.37096      182.21361     -138.99876     -119.55817     -122.81218      68.649757     -83.39168      -195.06772      3696853.5    
    192000   300.00177      0.89424613     0.67611017     1.5703563      188.90152      107.33663      182.26111      80.229516     -45.086456      45.193768     -95.017214     -68.075272     -199.39794      3695535.9    
    193000   299.6361       0.89315613     0.67698807     1.5701442      188.85827      107.39393      182.1787      -157.59668      53.699943      206.78735     -379.56838     -1.5436295     -223.59987      3694990.5    
    194000   300.71452      0.89637069     0.67607431     1.572445       188.84733      107.3957       182.12222      200.8948      -29.809947      102.53467     -115.32984     -52.586533     -258.3353       3693691.9    
    195000   299.62928      0.8931358      0.67597563     1.5691114      188.80254      107.37269      182.17914      37.860221     -148.47856     -83.200987      201.87443     -70.61508      -161.97645      3693178.4    
    196000   299.56         0.89292931     0.67757727     1.5705066      188.91311      107.38149      182.28206     -318.30941     -188.14356     -113.13859     -146.0211      -103.23064     -146.46362      3697732.1    
    197000   300.01581      0.894288       0.67776699     1.572055       188.88582      107.41098      182.28438     -150.6642       222.6787       6.5792822      123.42816     -63.041035     -170.98664      3698260.3    
    198000   300.77419      0.89654857     0.67678316     1.5733317      188.81436      107.41759      182.25303      17.575043     -30.824768     -26.295254     -172.70062     -51.6516       -319.40263      3696453.1    
    199000   299.67373      0.89326831     0.67703389     1.5703022      188.74821      107.41386      182.24958      92.864476     -110.7851       97.039509      0.38330891     65.755586     -63.40465       3694959.5    
    200000   299.96882      0.8941479      0.67499315     1.5691411      188.78799      107.41512      182.2885      -25.35327      -165.93914     -136.29255      0.50176357    -145.13021     -116.95047      3696571      
    201000   299.97169      0.89415647     0.67597408     1.5701305      188.81497      107.38864      182.15068     -81.977419     -179.2702       128.60917      71.157696     -140.34801     -70.764578      3693393.3    
    202000   299.66368      0.89323835     0.67469848     1.5679368      188.76264      107.32993      182.34453      169.45388     -326.23383     -190.85737     -206.64474     -28.76005      -178.76036      3694278.6    
    203000   299.68714      0.89330828     0.67648529     1.5697936      188.84588      107.3985       182.30937     -320.75274      85.656977      109.74495      72.480985     -146.79274     -213.15474      3697555.8    
    204000   299.90132      0.89394672     0.67651354     1.5704603      188.86897      107.37537      182.30468     -183.23347     -207.15023      155.30794     -108.78436     -25.547109     -217.68625      3697116.3    
    205000   300.59022      0.8960002      0.67459432     1.5705945      188.86636      107.37597      182.23901     -123.59431      40.075963     -104.95601     -172.98005     -20.298456     -100.2781       3695753.9    
    206000   300.14744      0.89468034     0.67647064     1.571151       188.89945      107.35466      182.28452     -69.256841      42.485131     -21.579238     -8.845816      -42.520618     -143.9574       3696590.9    
    207000   299.57147      0.89296349     0.67743584     1.5703993      188.8841       107.36927      182.22486      164.885        64.162159      12.466346      33.904632      50.276541     -83.359461      3695583.4    
    208000   300.43745      0.8955448      0.67694205     1.5724869      188.85423      107.40205      182.23914     -68.838058     -23.183468      118.39787     -52.930492     -2.2728858     -131.4791       3696416.9    
    209000   299.74147      0.89347023     0.67532579     1.568796       188.80848      107.39352      182.17744      79.538235     -205.51838     -45.300236     -129.93815     -85.275185     -224.98369      3693976.9    
    210000   300.15312      0.89469728     0.6798649      1.5745622      188.94607      107.37231      182.24042      56.554604     -167.30388      65.390218      26.922946     -37.860838     -154.50524      3697216.5    
    211000   299.81691      0.8936951      0.68033292     1.574028       188.83109      107.35786      182.26376     -146.41862      166.60023      83.848548      46.659372     -70.494419     -81.997187      3694942.2    
    212000   300.2978       0.89512855     0.67531296     1.5704415      188.84076      107.40088      182.20922      88.242818      139.68582     -55.945405     -125.31789      109.99152     -230.49334      3695506.3    
    213000   299.56597      0.89294709     0.67831739     1.5712645      188.901        107.3297       182.31754      26.617881      304.13167      59.107332      145.80515     -130.26175     -249.11504      3696431.1    
    214000   300.36535      0.89532991     0.67651583     1.5718457      188.97108      107.37926      182.32744      268.37248     -22.749828      69.843659      1.7130061     -55.735846     -219.52263      3699710.9    
    215000   299.60921      0.89307598     0.67922356     1.5722995      188.78163      107.39694      182.27569     -133.17504     -295.65839     -11.031149      63.595144      38.041408     -346.52091      3695561.1    
    216000   299.66878      0.89325356     0.67585551     1.5691091      188.7554       107.38976      182.19444      24.741987     -94.117962      81.849726     -47.331375     -130.14271     -199.08         3693153.7    
    217000   300.20081      0.89483944     0.67818911     1.5730286      188.94796      107.36361      182.26775      332.46499     -112.34982      208.2757       207.19759     -55.339482     -196.7784       3697508.3    
    218000   299.9794       0.89417945     0.67771252     1.571892       188.9982       107.41516      182.26527     -369.28709     -51.809085     -19.016695      128.625       -1.8774194     -146.86551      3700216.9    
    219000   300.38653      0.89539304     0.67692388     1.5723169      188.83325      107.38527      182.28541      112.0764      -362.67462      98.927472     -162.31058     -139.96393     -217.3005       3696366.9    
    220000   300.07092      0.89445224     0.67873945     1.5731917      188.79963      107.31751      182.26762      99.9827        142.02806      129.02014      118.0957      -71.558956     -150.68849      3693016.6    
    221000   300.14286      0.8946667      0.67701147     1.5716782      188.87356      107.36646      182.36326     -287.78997     -17.923298     -65.446898      33.82219      -51.502949     -263.64196      3698087.3    
    222000   300.66972      0.89623716     0.67727345     1.5735106      188.93548      107.36164      182.36169     -256.16373     -194.93968      69.738981      104.40189     -165.12753     -138.41548      3699101.6    
    223000   300.2722       0.89505222     0.67846945     1.5735217      188.95469      107.34138      182.36237      186.23941      141.5496       96.648139     -4.2056205     -182.16767     -230.77399      3698793.3    
    224000   299.78414      0.89359743     0.67728627     1.5708837      188.96145      107.37486      182.38622      95.572451      106.21927      156.78011      82.76624       73.780332     -316.02633      3700563.4    
[...]
   2982000   299.66036      0.89322847     0.68198536     1.5752138      188.82607      107.7075       182.36032     -73.639113     -177.05745      106.28847     -82.294511      0.28091994     265.68249      3708841.2    
   2983000   300.40803      0.8954571      0.68135059     1.5768077      188.72345      107.7665       182.3412      -143.52758      18.071322      215.58764     -13.476488      79.829103      272.77552      3708467.1    
   2984000   299.62613      0.89312642     0.67994421     1.5730706      188.76491      107.68801      182.18419      229.62004      35.669981      177.95091     -88.712714      11.856612      128.04121      3703388.6    
   2985000   299.58217      0.89299538     0.68123225     1.5742276      188.72023      107.71671      182.22718      175.17609     -93.17153      -187.6836       88.756794      8.2286121      255.16754      3704372.7    
   2986000   300.15983      0.89471727     0.68150206     1.5762193      188.65095      107.67647      182.24844     -24.018036      93.316388      35.599463     -183.28748     -8.9499764      262.91705      3702061.6    
   2987000   300.64953      0.89617698     0.67935225     1.5755292      188.77881      107.70616      182.19965      64.65997      -233.0833       68.542016      69.838717      73.033282      299.01167      3704599.8    
   2988000   299.57498      0.89297395     0.68146359     1.5744375      188.81111      107.65883      182.25001     -61.471138     -332.59032      135.46133     -59.996104     -33.021089      259.36399      3704629.2    
   2989000   299.47471      0.89267506     0.67968122     1.5723563      188.75527      107.72479      182.25247     -131.92863     -151.62668     -301.97905     -93.019124      66.46483       188.55214      3705852.7    
   2990000   299.85918      0.89382109     0.68146101     1.5752821      188.76498      107.74103      182.36924     -67.070496     -29.669154     -106.37316     -124.50988      32.252778      288.78023      3708977.2    
   2991000   300.21746      0.89488908     0.68176056     1.5766496      188.74869      107.72944      182.23186     -0.22627416    -73.952939      70.950588     -59.473009      28.970375      237.43588      3705464.6    
   2992000   300.56975      0.89593918     0.68347277     1.5794119      188.78572      107.71885      182.1934      -196.49926     -220.13313      104.90355     -137.09548      78.218082      231.68746      3705044.8    
   2993000   300.0073       0.89426262     0.6806134      1.574876       188.77402      107.70549      182.18661     -219.80863      179.6977       89.897694      213.05421      66.314915      277.76036      3704218      
   2994000   298.91811      0.89101597     0.68080827     1.5718242      188.79453      107.70483      182.34934     -112.55073      175.43831     -168.22234     -64.845241     -18.946023      310.3661       3707906.3    
   2995000   300.41043      0.89546426     0.68108058     1.5765448      188.73279      107.70595      182.28783      67.795022      210.98257     -92.522076      191.42445      41.274046      130.72462      3705482.2    
   2996000   299.99271      0.89421914     0.68235957     1.5765787      188.73658      107.7371       182.19251      303.35271      53.599369      249.87006      59.750589     -44.265456      71.420914      3704689.8    
   2997000   300.34235      0.89526134     0.68052796     1.5757893      188.83528      107.69323      182.26185     -281.33383      263.4996      -66.831844     -121.59246      150.7043       304.88176      3706528      
   2998000   299.71873      0.89340244     0.68117913     1.5745816      188.69764      107.7099       182.29471     -20.33923      -254.71654     -10.513556      52.324282      111.3649       412.46096      3705068      
   2999000   300.50278      0.89573955     0.68012314     1.5758627      188.73229      107.70463      182.21292      103.01697     -178.01898      41.579482      104.50669      57.030453      454.40182      3703904.2    
   3000000   300.70894      0.89635406     0.67922836     1.5755824      188.74714      107.7155       182.15989     -205.71643     -111.2608      -72.743267     -13.135057      131.07093      211.80659      3703491.4    
Loop time of 23192.4 on 256 procs for 1500000 steps with 414720 atoms

Performance: 5.588 ns/day, 4.295 hours/ns, 64.676 timesteps/s, 26.823 Matom-step/s
99.4% CPU use with 256 MPI tasks x no OpenMP threads

MPI task timing breakdown:
Section |  min time  |  avg time  |  max time  |%varavg| %total
---------------------------------------------------------------
Pair    | 10188      | 10386      | 10601      |  67.2 | 44.78
Bond    | 454.45     | 463.16     | 478.35     |  18.0 |  2.00
Kspace  | 3238.9     | 3518       | 3830       | 175.5 | 15.17
Neigh   | 4963.9     | 5060.4     | 5142.2     |  61.3 | 21.82
Comm    | 2228.2     | 2555.7     | 2932.6     | 304.1 | 11.02
Output  | 1.1087     | 4.0815     | 4.3618     |  11.5 |  0.02
Modify  | 909.1      | 1048.4     | 1140.5     | 145.3 |  4.52
Other   |            | 156.8      |            |       |  0.68

Nlocal:           1620 ave        1641 max        1597 min
Histogram: 6 5 23 31 38 67 37 37 9 3
Nghost:        8456.96 ave        8565 max        8335 min
Histogram: 1 6 21 36 54 47 41 31 14 5
Neighs:         382239 ave      389387 max      373192 min
Histogram: 3 4 11 27 51 49 64 26 15 6

Total # of neighbors = 97853303
Ave neighs/atom = 235.95029
Ave special neighs/atom = 9.4
Neighbor list builds = 206799
Dangerous builds = 17
unfix           4

unfix           7  # box_parameters.dat
unfix           6  # center.dat
unfix           2  # output.dat
unfix           1
#======================NPT equilibration
fix             5 all nph tri ${patm} ${patm} ${pdamp} fixedpoint ${xcm} ${ycm} ${zcm} flip no
fix             5 all nph tri 1 ${patm} ${pdamp} fixedpoint ${xcm} ${ycm} ${zcm} flip no
fix             5 all nph tri 1 1 ${pdamp} fixedpoint ${xcm} ${ycm} ${zcm} flip no
fix             5 all nph tri 1 1 1000 fixedpoint ${xcm} ${ycm} ${zcm} flip no
fix             5 all nph tri 1 1 1000 fixedpoint 84.9659074412232 ${ycm} ${zcm} flip no
fix             5 all nph tri 1 1 1000 fixedpoint 84.9659074412232 49.2738681591411 ${zcm} flip no
fix             5 all nph tri 1 1 1000 fixedpoint 84.9659074412232 49.2738681591411 86.2722299428478 flip no
run             ${trelax}
run             50000
PPPM initialization ...
  using 12-bit tables for long-range coulomb (../kspace.cpp:342)
  G vector (1/distance) = 0.29202899
  grid = 32 32 60
  stencil order = 6
  estimated absolute RMS force accuracy = 3.430745
  estimated relative force accuracy = 0.010331587
  using double precision KISS FFT
  3d grid and FFT values/proc = 2310 256
Generated 3 of 3 mixed pair_coeff terms from arithmetic mixing rule
Per MPI rank memory allocation (min/avg/max) = 18.44 | 18.45 | 18.45 Mbytes
   Step          Temp          KinEng         PotEng         TotEng           Lx             Ly             Lz            Pxx            Pyy            Pzz            Pxy            Pxz            Pyz           Volume    
   3000000   300.70894      0.89635406     0.67922837     1.5755824      188.74714      107.7155       182.15989     -205.71484     -111.26054     -72.74279      -13.132328      131.0715       211.94293      3703491.4    
   3001000   300.24961      0.89498489     0.68214531     1.5771302      188.72679      107.69321      182.21126     -86.953338     -35.056553      205.15429      114.78444      78.172184      364.08749      3703369.8    
   3002000   300.00644      0.89426004     0.68021389     1.5744739      188.69359      107.6706       182.14261     -230.83168     -181.88127     -157.02127     -133.77375     -92.000403      161.93204      3700546.1    
   3003000   300.44873      0.89557843     0.68034216     1.5759206      188.7284       107.67506      182.0991       33.373978     -121.32257      51.510436      75.972287      47.185818      131.34277      3700498.2    
   3004000   299.4451       0.89258682     0.67837731     1.5709641      188.72258      107.65034      182.11608     -110.15776     -153.08478     -118.30172     -20.075017     -12.936204      147.47559      3699879.4    
   3005000   299.8387       0.89376006     0.68083834     1.5745984      188.73099      107.64862      182.08523     -302.72593     -3.9817936      53.40739      -51.724181      111.77117      46.643626      3699358.3    
   3006000   300.27993      0.89507528     0.67759703     1.5726723      188.71019      107.65936      182.03085     -58.932639     -309.11055      78.596506      46.740164     -22.302387      95.535075      3698214.7    
   3007000   299.74378      0.89347711     0.67719337     1.5706705      188.66454      107.67116      182.06218     -81.540487      28.5935       -46.259117     -98.754027      1.7363902      131.52226      3698361.9    
   3008000   300.21346      0.89487713     0.67894797     1.5738251      188.73495      107.65891      182.06395     -68.75261      -167.71296     -162.81468      37.34131      -101.91131      63.573381      3699357.2    
   3009000   300.0109       0.89427334     0.67847528     1.5727486      188.67515      107.63584      182.02232     -248.79853     -181.42934      0.30959035    -88.5915       -47.561738      63.294559      3696547.3    
   3010000   299.94636      0.89408096     0.67698844     1.5710694      188.71399      107.6197       181.99271      225.01193     -8.7469299      195.79351      185.49036     -153.79382      24.868431      3696152.3    
   3011000   300.47966      0.89567062     0.67550267     1.5711733      188.68564      107.60329      181.99346      308.81539      361.40533      133.31271     -49.238882     -65.990105      159.68235      3695048.7    
   3012000   299.67387      0.89326873     0.67816187     1.5714306      188.73379      107.60207      182.03056     -179.14232     -151.00619      173.703       -69.157966     -49.458028      139.92256      3696703.4    
   3013000   300.01052      0.8942722      0.67653575     1.570808       188.7017       107.55568      182.03621     -230.02771     -124.57834     -54.835821     -58.687634     -120.17233     -87.459591      3694596.1    
   3014000   300.01012      0.89427104     0.67915188     1.5734229      188.76166      107.5882       182.05911     -142.31111      284.98049     -205.68432      52.812467      30.421986     -154.21862      3697352.4    
   3015000   299.77848      0.89358056     0.67811544     1.571696       188.65634      107.55611      182.06024      207.42815      252.02316     -40.206485      6.1317184      99.515382      62.727386      3694210.4    
   3016000   300.04703      0.89438105     0.67836265     1.5727437      188.6998       107.54304      182.04079     -17.559401      185.3306       176.69045      238.44929     -55.693529      86.395605      3694217.5    
   3017000   299.9378       0.89405546     0.67748632     1.5715418      188.68042      107.51536      182.12126     -179.83542      133.73996     -39.134103      58.598997     -204.55771      155.37847      3694519.7    
   3018000   300.26135      0.89501989     0.67721107     1.572231       188.69447      107.56848      181.92041     -320.77332      431.32116      19.402673      28.533982      4.093272       21.473263      3692543.8    
   3019000   300.23645      0.89494567     0.67829438     1.5732401      188.7201       107.60719      182.01112     -102.79373      255.39599     -29.224174     -51.558926      177.84725      180.33038      3696216      
   3020000   299.80652      0.89366414     0.67770389     1.571368       188.76991      107.59383      182.08369      252.75591     -120.70293      58.247905      1.0466783      17.221016     -63.899386      3698206.8    
   3021000   300.01148      0.89427508     0.67797476     1.5722498      188.77287      107.55603      182.05964     -137.49526      142.02803      198.49464      4.3599576     -67.075139     -72.450864      3696477.1    
   3022000   300.41621      0.89548151     0.67506538     1.5705469      188.75428      107.5382       182.00714      31.681488      85.886794     -176.80932     -82.401443     -31.261548     -14.093187      3694434.7    
   3023000   299.96044      0.89412293     0.67770743     1.5718304      188.77216      107.52955      181.97988      150.86551     -165.23034      68.477621      10.008208      82.831005      74.742083      3693934.1    
   3024000   299.42471      0.89252605     0.6772455      1.5697715      188.69158      107.56653      182.04164     -111.84666     -69.677858     -185.63209      20.222697      32.764991     -94.668311      3694880.8    
   3025000   299.84701      0.89378483     0.67873593     1.5725208      188.64716      107.62688      182.17805      53.618242     -377.28658     -107.70401      24.553115     -28.468387      101.58749      3698853      
   3026000   299.76389      0.89353705     0.67951742     1.5730545      188.73923      107.58303      182.07022     -163.73133     -54.270796     -73.03137      -118.05406     -166.81703      60.391075      3696960.9    
   3027000   299.87529      0.89386912     0.67547395     1.5693431      188.71009      107.56631      181.98648     -253.28162      78.037124      89.192655      158.53609      16.73389      -197.92816      3694115.8    
   3028000   300.05827      0.89441456     0.67814156     1.5725561      188.73531      107.60107      182.10381     -227.38382      4.6290415     -235.54171     -80.415996      100.89446      6.5992252      3698186.3    
   3029000   300.432        0.89552856     0.67895064     1.5744792      188.6742       107.60476      182.02785     -4.1606483      108.11748     -130.35165     -68.269437      125.34654     -47.135106      3695573.4    
   3030000   299.75179      0.89350099     0.67636697     1.569868       188.57282      107.56918      182.05154      160.43142     -119.66735      76.747924     -97.561795     -33.455287     -97.049782      3692847.2    
   3031000   299.56265      0.8929372      0.6777229      1.5706601      188.68855      107.59049      181.9369      -138.36927     -338.08152     -56.763729      27.566489     -139.2214      -118.21967      3693518.2    
   3032000   300.03022      0.89433095     0.67704488     1.5713758      188.75603      107.57407      181.99853      29.925096     -25.289525      1.9245877      285.14646     -50.511288      11.967747      3695526.6    
   3033000   299.87817      0.8938777      0.67659426     1.570472       188.79658      107.53999      182.02061      44.451105      115.99342      81.081         58.70021      -104.2714       78.840987      3695597.6    
   3034000   300.70027      0.89632823     0.67852643     1.5748547      188.77559      107.56755      182.10863      22.97443       71.870966      151.92227      46.03078       101.17329      3.3372046      3697920.9    
   3035000   300.39833      0.89542819     0.67845536     1.5738836      188.67037      107.5827       181.99302     -192.08557     -28.736181      30.269454     -33.497491      71.71879       3.1941468      3694033.9    
   3036000   300.61826      0.89608378     0.67692491     1.5730087      188.7173       107.58027      181.96084      11.54911       101.2566      -27.542011     -136.69233      19.384858     -40.057737      3694216      
   3037000   300.14953      0.89468657     0.67923978     1.5739264      188.66709      107.59544      182.09694      62.852656     -8.5828279     -221.88521     -139.19133     -54.864076      153.99174      3696516.8    
   3038000   300.33747      0.89524678     0.67635653     1.5716033      188.69707      107.58757      182.03125      359.99525     -98.291381     -8.5940026     -55.590137     -108.53408      65.226315      3695500      
   3039000   299.63358      0.89314863     0.67648394     1.5696326      188.59447      107.57737      181.86095      0.5871039      114.36706      184.0188       35.014369      32.484616     -176.84642      3689685.3    
   3040000   300.59399      0.89601144     0.67538853     1.5714         188.66561      107.59883      182.02849     -60.377564     -101.57251     -116.08139      341.9233       51.555889     -37.719843      3695214.6    
   3041000   300.61354      0.89606969     0.67767706     1.5737468      188.71623      107.57705      182.09176      25.889919     -34.942836     -272.95288     -19.008901      23.03051       13.876642      3696742.3    
   3042000   300.55339      0.89589042     0.67729653     1.5731869      188.78991      107.57841      182.03844      179.91111      2.4805317      99.898648      167.17358     -30.481187     -16.711102      3697149.3    
   3043000   299.5838       0.89300026     0.67736354     1.5703638      188.65115      107.58012      182.02166     -139.98474     -90.079947      172.40923     -90.751141      46.670836     -38.173305      3694150.2    
   3044000   300.13911      0.89465551     0.67849805     1.5731536      188.73532      107.5304       182.00578     -245.82811      98.774197     -230.41193     -3.0030914      7.2174185      53.144741      3693768      
   3045000   300.13432      0.89464123     0.67521111     1.5698523      188.69274      107.54242      181.90682      149.39822      133.00848      49.503873      164.18872      107.26488      125.92241      3691339.5    
   3046000   300.17481      0.89476193     0.67852462     1.5732865      188.75105      107.56928      182.02326      26.059008     -172.20522     -0.97730759    -14.116688     -165.7615       9.4341348      3695766.5    
   3047000   300.31089      0.89516757     0.67768346     1.572851       188.66222      107.58857      182.01255      169.97764     -61.875999      25.292727      162.57195      39.594601      22.088287      3694472.3    
   3048000   300.35215      0.89529054     0.67808211     1.5733726      188.61572      107.59913      182.04415     -342.76563     -82.919932     -32.952568      17.041404      28.21406       54.763614      3694565.5    
   3049000   300.21263      0.89487466     0.67509352     1.5699682      188.63483      107.57854      182.09314      142.82612      170.95818      290.7721      -203.92267      47.831388      52.840434      3695227      
   3050000   299.63218      0.89314446     0.67567217     1.5688166      188.70912      107.55741      181.91317     -95.581882      106.80039      66.591582      83.54778      -14.965069     -3.33975        3692303.2    
Loop time of 755.94 on 256 procs for 50000 steps with 414720 atoms

Performance: 5.715 ns/day, 4.200 hours/ns, 66.143 timesteps/s, 27.431 Matom-step/s
99.4% CPU use with 256 MPI tasks x no OpenMP threads

MPI task timing breakdown:
Section |  min time  |  avg time  |  max time  |%varavg| %total
---------------------------------------------------------------
Pair    | 336.69     | 342.6      | 353.69     |  12.9 | 45.32
Bond    | 15.115     | 15.426     | 16.131     |   3.5 |  2.04
Kspace  | 105.67     | 113.77     | 122.96     |  31.8 | 15.05
Neigh   | 166.58     | 169.77     | 172.53     |  11.0 | 22.46
Comm    | 75.921     | 85.263     | 97.37      |  53.8 | 11.28
Output  | 0.010433   | 0.01521    | 0.022821   |   2.2 |  0.00
Modify  | 19.293     | 23.832     | 26.958     |  31.5 |  3.15
Other   |            | 5.266      |            |       |  0.70

Nlocal:           1620 ave        1640 max        1594 min
Histogram: 3 8 16 34 25 50 52 32 21 15
Nghost:        8466.12 ave        8553 max        8377 min
Histogram: 5 9 22 39 38 61 48 18 11 5
Neighs:         383191 ave      389285 max      373672 min
Histogram: 3 4 15 19 39 31 58 35 33 19

Total # of neighbors = 98096801
Ave neighs/atom = 236.53743
Ave special neighs/atom = 9.4
Neighbor list builds = 6931
Dangerous builds = 1
unfix           5
######################################
# SIMULATION DONE
Total wall time: 13:20:39
