LAMMPS (27 Jun 2024)
include lmp.in
#smiles: Cc1c(C)c(C)c(C)c(C)c1C
units real
atom_style full

dimension 3
boundary p p p  #p p m

bond_style hybrid harmonic
angle_style hybrid harmonic
dihedral_style hybrid charmm
# special_bonds amber # same as special_bonds lj 0.0 0.0 0.5000 coul 0.0 0.0 0.83333
special_bonds amber lj 0.0 0.0 0.50000 coul 0.0 0.0 0.83333 angle yes dihedral no
box tilt large

The 'box' command has been removed and will be ignored


read_data lmp.dat
Reading data file ...
  triclinic box = (0 0 0) to (30.8471 17.6224 57.5148) with tilt (0.0233 -6.027 -0.9687)
  8 by 4 by 8 MPI processor grid
  reading atoms ...
  3840 atoms
  reading velocities ...
  3840 velocities
  scanning bonds ...
  4 = max bonds/atom
  scanning angles ...
  6 = max angles/atom
  scanning dihedrals ...
  8 = max dihedrals/atom
  triclinic box = (0 0 0) to (30.8471 17.6224 57.5148) with tilt (0.0233 -6.027 -0.9687)
  8 by 4 by 8 MPI processor grid
  reading bonds ...
  3840 bonds
  reading angles ...
  6912 angles
  reading dihedrals ...
  3840 dihedrals
Finding 1-2 1-3 1-4 neighbors ...
  special bond factors lj:    0        0        0.5     
  special bond factors coul:  0        0        0.83333 
     4 = max # of 1-2 neighbors
     7 = max # of 1-3 neighbors
    17 = max # of 1-4 neighbors
  13824 = # of 1-3 neighbors before angle trim
  13824 = # of 1-3 neighbors after angle trim
    19 = max # of special neighbors
  special bonds CPU = 0.494 seconds
  read_data CPU = 0.566 seconds

neighbor 2.0 multi
neigh_modify every 2 delay 4 check yes
#neigh_modify every 2 delay 10

pair_style lj/cut/coul/long 9.0 9.0
pair_modify mix arithmetic shift no tail yes
kspace_style pppm 0.0005
kspace_modify gewald 0.29202898720871845 mesh 32 32 60 order 6

pair_coeff 1 1   0.1094000   3.3996695
pair_coeff 2 2   0.0860000   3.3996695
pair_coeff 3 3   0.0157000   2.6495328

#pair_modify mix arithmetic
thermo_style custom step temp vol press etotal pe ke epair ecoul elong evdwl ebond eangle edihed eimp emol etail #    cella cellb cellc cellalpha cellbeta cellgamma density pxx pyy pzz pxy pxy pyz
thermo_modify lost ignore flush yes

#compute peatom all pe/atom
#dump 1 all custom 1 dump.lammpstrj id type q x y z fx fy fz c_peatom element
#dump_modify 1 sort id pad 9 element C C H

#minimize 1e-5 1e-5 100 100
#run 0

variable temperature equal      300.000
variable patm equal        1.000
variable dt equal        1.000
variable trelax equal   50000.000
variable deform_steps equal       50.000
variable ele_string string "C C H"
variable strain_total equal        0.30
variable strainrate equal 2.000000e+08
variable direction1 string yz
variable direction2 string xz
replicate  6 6 3
Replication is creating a 6x6x3 = 108 times larger system...
  triclinic box = (0 0 0) to (185.0826 105.7344 172.5444) with tilt (0.1398 -18.081 -2.9061)
  8 by 4 by 8 MPI processor grid
  414720 atoms
  414720 bonds
  746496 angles
  414720 dihedrals
Finding 1-2 1-3 1-4 neighbors ...
  special bond factors lj:    0        0        0.5     
  special bond factors coul:  0        0        0.83333 
     4 = max # of 1-2 neighbors
     7 = max # of 1-3 neighbors
    17 = max # of 1-4 neighbors
  1492992 = # of 1-3 neighbors before angle trim
  1492992 = # of 1-3 neighbors after angle trim
    19 = max # of special neighbors
  special bonds CPU = 0.018 seconds
  replicate CPU = 0.048 seconds
#include lmp.in

variable srate      equal ${strainrate}/1e15
variable srate      equal 200000000/1e15
variable thermo     equal "ceil(abs(1e12 / v_strainrate))"
variable tdamp      equal 100*${dt}
variable tdamp      equal 100*1
variable pdamp      equal 1000*${dt}
variable pdamp      equal 1000*1
variable pe         equal pe

# for units real, pressure is in [atmospheres] = 0.101325 [MPa]
variable sxx        equal "-pxx*0.101325"
variable syy        equal "-pyy*0.101325"
variable szz        equal "-pzz*0.101325"
variable sxz        equal "-pxz*0.101325"
variable syz        equal "-pyz*0.101325"
variable sxy        equal "-pxy*0.101325"
variable steps      equal ceil(abs(${strain_total}/${srate}))
variable steps      equal ceil(abs(0.3/${srate}))
variable steps      equal ceil(abs(0.3/2e-07))
variable dump_steps equal ceil(${steps}/${deform_steps})
variable dump_steps equal ceil(1500000/${deform_steps})
variable dump_steps equal ceil(1500000/50)
variable strain     equal "step*v_srate"
variable    xcm     equal xcm(all,x)
variable    ycm     equal xcm(all,y)
variable    zcm     equal xcm(all,z)
variable    xhi     equal xhi
variable    yhi     equal yhi
variable    zhi     equal zhi
variable    xlo     equal xlo
variable    ylo     equal ylo
variable    zlo     equal zlo
variable    xy      equal xy
variable    xz      equal xz
variable    yz      equal yz


print "strainrate ${strainrate}"
strainrate 200000000
print "srate ${srate}"
srate 2e-07
print "steps ${steps}"
steps 1500000
print "dump_steps ${dump_steps}"
dump_steps 30000


thermo          1000
neighbor        1.0    bin
neigh_modify    every 1 delay 5 check yes
thermo_style    custom step temp ke pe etotal lx ly lz pxx pyy pzz pxy pxz pyz vol
WARNING: New thermo_style command, previous thermo_modify settings will be lost (../output.cpp:904)
thermo_modify   lost warn norm yes
timestep 	    ${dt}
timestep 	    1

#======================== Energy minimization
min_style       cg
minimize        1.0e-25 1.0e-25 100 100000

CITE-CITE-CITE-CITE-CITE-CITE-CITE-CITE-CITE-CITE-CITE-CITE-CITE

Your simulation uses code contributions which should be cited:

- Type Label Framework: https://doi.org/10.1021/acs.jpcb.3c08419

@Article{Gissinger24,
 author = {Jacob R. Gissinger, Ilia Nikiforov, Yaser Afshar, Brendon Waters, Moon-ki Choi, Daniel S. Karls, Alexander Stukowski, Wonpil Im, Hendrik Heinz, Axel Kohlmeyer, and Ellad B. Tadmor},
 title = {Type Label Framework for Bonded Force Fields in LAMMPS},
 journal = {J. Phys. Chem. B},
 year =    2024,
 volume =  128,
 number =  13,
 pages =   {3282–-3297}
}

- neighbor multi command: doi:10.1016/j.cpc.2008.03.005, doi:10.1007/s40571-020-00361-2

@Article{Intveld08,
 author =  {in 't Veld, P. J. and S. J.~Plimpton and G. S. Grest},
 title =   {Accurate and Efficient Methods for Modeling Colloidal
            Mixtures in an Explicit Solvent using Molecular Dynamics},
 journal = {Comput.\ Phys.\ Commut.},
 year =    2008,
 volume =  179,
 pages =   {320--329}
}

@article{Shire2020,
 author = {Shire, Tom and Hanley, Kevin J. and Stratford, Kevin},
 title = {{DEM} Simulations of Polydisperse Media: Efficient Contact
          Detection Applied to Investigate the Quasi-Static Limit},
 journal = {Computational Particle Mechanics},
 year = {2020}
@article{Monti2022,
 author = {Monti, Joseph M. and Clemmer, Joel T. and Srivastava, 
           Ishan and Silbert, Leonardo E. and Grest, Gary S. 
           and Lechman, Jeremy B.},
 title = {Large-scale frictionless jamming with power-law particle 
          size distributions},
 journal = {Phys. Rev. E},
 volume = {106}
 issue = {3}
 year = {2022}
}

CITE-CITE-CITE-CITE-CITE-CITE-CITE-CITE-CITE-CITE-CITE-CITE-CITE

Switching to 'neigh_modify every 1 delay 0 check yes' setting during minimization
PPPM initialization ...
  using 12-bit tables for long-range coulomb (../kspace.cpp:342)
  G vector (1/distance) = 0.29202899
  grid = 32 32 60
  stencil order = 6
  estimated absolute RMS force accuracy = 2.8571248
  estimated relative force accuracy = 0.0086041466
  using double precision KISS FFT
  3d grid and FFT values/proc = 2310 256
Generated 3 of 3 mixed pair_coeff terms from arithmetic mixing rule
Neighbor list info ...
  update: every = 1 steps, delay = 0 steps, check = yes
  max neighbors/atom: 2000, page size: 100000
  master list distance cutoff = 10
  ghost atom cutoff = 10
  binsize = 5, bins = 41 22 35
  1 neighbor lists, perpetual/occasional/extra = 1 0 0
  (1) pair lj/cut/coul/long, perpetual
      attributes: half, newton on
      pair build: half/bin/newton/tri
      stencil: half/bin/3d/tri
      bin: standard
Per MPI rank memory allocation (min/avg/max) = 17.26 | 17.26 | 17.27 Mbytes
   Step          Temp          KinEng         PotEng         TotEng           Lx             Ly             Lz            Pxx            Pyy            Pzz            Pxy            Pxz            Pyz           Volume    
         0   0              0              4.2825885      4.2825885      185.0826       105.7344       172.5444       137338.95      121512.06      216523.6      -4296.0927     -4806.8582      2648.8182      3376624.5    
        66   0              0             -0.29790531    -0.29790531     185.0826       105.7344       172.5444      -3083.867      -2732.5982      932.45944     -920.37903     -782.45777      327.3653       3376624.5    
Loop time of 4.16821 on 256 procs for 66 steps with 414720 atoms

98.8% CPU use with 256 MPI tasks x no OpenMP threads

Minimization stats:
  Stopping criterion = linesearch alpha is zero
  Energy initial, next-to-last, final = 
      4.28258852997219  -0.29790530902869 -0.297905309028693
  Force two-norm initial, final = 59619.755 27.935035
  Force max component initial, final = 140.90257 0.10194492
  Final line search alpha, max atom move = 6.5855622e-06 6.7136463e-07
  Iterations, force evaluations = 66 163

MPI task timing breakdown:
Section |  min time  |  avg time  |  max time  |%varavg| %total
---------------------------------------------------------------
Pair    | 1.778      | 1.8384     | 3.4085     |   7.5 | 44.10
Bond    | 0.045177   | 0.045861   | 0.049232   |   0.2 |  1.10
Kspace  | 0.37091    | 1.9426     | 2.0131     |   7.4 | 46.61
Neigh   | 0          | 0          | 0          |   0.0 |  0.00
Comm    | 0.23129    | 0.26344    | 0.31899    |   4.0 |  6.32
Output  | 0          | 0          | 0          |   0.0 |  0.00
Modify  | 0          | 0          | 0          |   0.0 |  0.00
Other   |            | 0.07787    |            |       |  1.87

Nlocal:           1620 ave        1620 max        1620 min
Histogram: 256 0 0 0 0 0 0 0 0 0
Nghost:           9027 ave        9045 max        9009 min
Histogram: 128 0 0 0 0 0 0 0 0 128
Neighs:         413478 ave      414651 max      412306 min
Histogram: 9 19 4 36 54 71 33 6 15 9

Total # of neighbors = 1.0585037e+08
Ave neighs/atom = 255.23333
Ave special neighs/atom = 9.4
Neighbor list builds = 0
Dangerous builds = 0
#fix             BoxRelax all box/relax tri 0.0  vmax 0.01 nreset 10 fixedpoint ${xcm} ${ycm} ${zcm}
#minimize        1.0e-25 1.0e-25 100 100# 000 1000000
#unfix           BoxRelax
dump            1 all custom 10000 0.dump element id mol type x y z
undump          1

#========================= Global setting for NPT simulation
fix             langevin all langevin ${temperature} ${temperature} ${tdamp} 32258453 zero yes
fix             langevin all langevin 300 ${temperature} ${tdamp} 32258453 zero yes
fix             langevin all langevin 300 300 ${tdamp} 32258453 zero yes
fix             langevin all langevin 300 300 100 32258453 zero yes

#======================== NPT equilibration
velocity        all create ${temperature} 1938072 mom yes rot no
velocity        all create 300 1938072 mom yes rot no
#fix             1 all npt temp ${temperature} ${temperature} ${tdamp} iso ${pressure} ${pressure} ${pdamp}
fix             1 all nph tri ${patm} ${patm} ${pdamp} fixedpoint ${xcm} ${ycm} ${zcm} flip no
fix             1 all nph tri 1 ${patm} ${pdamp} fixedpoint ${xcm} ${ycm} ${zcm} flip no
fix             1 all nph tri 1 1 ${pdamp} fixedpoint ${xcm} ${ycm} ${zcm} flip no
fix             1 all nph tri 1 1 1000 fixedpoint ${xcm} ${ycm} ${zcm} flip no
fix             1 all nph tri 1 1 1000 fixedpoint 86.4620903653394 ${ycm} ${zcm} flip no
fix             1 all nph tri 1 1 1000 fixedpoint 86.4620903653394 51.0010969797264 ${zcm} flip no
fix             1 all nph tri 1 1 1000 fixedpoint 86.4620903653394 51.0010969797264 86.2722299428767 flip no

dump            1 all custom 20000 equilibrium.*.dump element id mol type x y z
dump_modify     1 element ${ele_string}
dump_modify     1 element C C H
run             ${trelax}
run             50000
PPPM initialization ...
  using 12-bit tables for long-range coulomb (../kspace.cpp:342)
  G vector (1/distance) = 0.29202899
  grid = 32 32 60
  stencil order = 6
  estimated absolute RMS force accuracy = 2.8571248
  estimated relative force accuracy = 0.0086041466
  using double precision KISS FFT
  3d grid and FFT values/proc = 2310 256
Generated 3 of 3 mixed pair_coeff terms from arithmetic mixing rule
Per MPI rank memory allocation (min/avg/max) = 16.13 | 16.14 | 16.14 Mbytes
   Step          Temp          KinEng         PotEng         TotEng           Lx             Ly             Lz            Pxx            Pyy            Pzz            Pxy            Pxz            Pyz           Volume    
        66   300            0.89424086    -0.29790531     0.59633555     185.0826       105.7344       172.5444       1936.1799      2288.2198      5953.5316     -915.01976     -777.79983      338.82374      3376624.5    
      1000   299.15114      0.89171057     0.6376395      1.5293501      187.01314      106.86303      177.01804      1220.0525      746.8448       3154.4328     -172.95873     -345.24868     -142.74555      3537668.6    
      2000   299.55287      0.89290806     0.65918426     1.5520923      188.05951      107.29145      179.69589      244.94821     -82.016403      1205.7198     -65.899354     -182.33029     -27.678196      3625755.8    
      3000   299.72744      0.89342841     0.66941451     1.5628429      188.49172      107.38955      181.16577      54.398617      47.026         353.73159     -82.925292     -70.467215     -172.82379      3667165      
      4000   299.87966      0.89388215     0.67200315     1.5658853      188.63404      107.41023      181.76147     -214.53727     -353.09135      135.72612     -132.22037     -207.2471      -128.9693       3682710      
      5000   300.13398      0.89464023     0.67503084     1.5696711      188.75902      107.42384      181.99131     -77.43922      -78.869194      64.852979     -22.274742      0.46428072    -76.491933      3690277.6    
      6000   300.27024      0.8950464      0.6748825      1.5699289      188.79549      107.44555      181.99241      383.63696     -5.3990097      3.3259899     -70.275156     -126.42354     -41.462017      3691758.9    
      7000   299.91246      0.89397993     0.67615869     1.5701386      188.81427      107.43446      181.9949      -25.048655     -107.82245      34.960608      87.601957     -62.419121      54.688307      3691795.4    
      8000   300.06104      0.89442282     0.67734061     1.5717634      188.82598      107.42832      182.07591      167.8975      -24.243888     -37.309229     -62.910228      38.994074      62.494398      3693456.7    
      9000   300.9089       0.89695012     0.67295601     1.5699061      188.73905      107.41974      182.0693       72.153589      66.476698      211.93189     -30.833636      80.321607      101.24745      3691327.6    
     10000   299.1125       0.8915954      0.67502447     1.5666199      188.85254      107.44021      182.13895     -139.09378      28.0463       -81.055427     -123.88399      20.714478      53.818667      3695664.2    
     11000   299.73874      0.89346209     0.67463632     1.5680984      188.85563      107.4577       182.05601     -52.44521      -137.69641      119.05594     -102.68106      14.885307      47.995424      3694643.1    
     12000   300.54321      0.89586005     0.6731105      1.5689706      188.73718      107.38983      181.96338      487.05004      230.78493      157.51128     -99.085571     -68.115429     -112.81114      3688116.1    
     13000   300.7302       0.89641743     0.67319053     1.569608       188.81464      107.4294       182.03138      344.16048      109.36942      67.428003      32.131035      15.40293       16.219627      3692368.9    
     14000   299.64481      0.8931821      0.67600509     1.5691872      188.82858      107.42303      182.0403      -15.725563     -210.59616     -16.844477     -107.73402      51.585281      94.790899      3692603.3    
     15000   299.6498       0.89319697     0.67313426     1.5663312      188.70211      107.4301       182.0828      -4.0498255     -44.966986     -13.421077     -52.83274       85.18994      -109.22326      3691234.6    
     16000   299.75297      0.89350452     0.67572065     1.5692252      188.80339      107.48082      182.03883     -33.770373     -51.871867     -114.19493     -155.98755     -48.297062      66.720151      3694067.3    
     17000   300.7842       0.89657842     0.67674362     1.573322       188.77408      107.4617       182.0194       30.153148      19.923928     -47.469101      314.73964      84.432914      71.432204      3692442.4    
     18000   299.95743      0.89411397     0.67370981     1.5678238      188.85257      107.42405      181.96838     -16.355045     -160.03674     -23.883235     -67.564534      19.986247      16.884298      3691648.6    
     19000   300.6516       0.89618314     0.6738866      1.5700697      188.86327      107.40668      182.03885      42.00733       95.5482       -99.154363      24.75801      -51.259036      100.29495      3692690.3    
     20000   300.0387       0.8943562      0.67727334     1.5716295      188.85142      107.41433      182.17154     -225.31188      196.32153      68.003502     -99.723996     -98.949634     -13.443621      3695413.3    
     21000   299.35761      0.89232603     0.67527299     1.567599       188.75718      107.43211      182.09331      171.64505      59.034283     -99.925016     -129.59108     -21.36674       73.108423      3692594.1    
     22000   300.21501      0.89488177     0.67616416     1.5710459      188.82344      107.46608      182.06235     -50.43781      -69.661105     -22.257982     -69.504324     -31.68908      -52.991662      3694430.2    
     23000   299.90418      0.89395525     0.67765528     1.5716105      188.83872      107.44896      182.0019      -79.306571     -127.14328      165.10895      60.60756      -111.63648     -39.215666      3692914      
     24000   299.5457       0.89288668     0.67699725     1.5698839      188.76205      107.45259      181.97275      30.888921     -89.085257      98.740728     -69.935359      193.27457      76.144989      3690947.9    
     25000   300.51495      0.89577584     0.67560498     1.5713808      188.85696      107.43642      182.01277     -280.46663      302.17542     -49.355684      8.6724844      73.369155     -132.18498      3693060.1    
     26000   300.28399      0.89508739     0.67802799     1.5731154      188.71562      107.47925      182.11695      92.230348     -230.25205     -145.2457       85.13672      -58.231816     -46.888861      3693880.4    
     27000   299.78196      0.89359093     0.67606666     1.5696576      188.65417      107.47671      182.02059      45.233385      226.17864     -132.49265      41.751036     -11.240277      87.982763      3690636.6    
     28000   300.15416      0.89470038     0.67667597     1.5713764      188.81634      107.48278      182.03842     -232.01599     -160.85624     -59.98015       80.085046     -81.360134     -60.039095      3694379.6    
     29000   300.19595      0.89482494     0.67646613     1.5712911      188.80748      107.43325      182.06071      413.36773      392.57377      44.482562     -63.121527      142.59481      20.749136      3692956      
     30000   300.28454      0.89508903     0.67758708     1.5726761      188.88456      107.45531      182.10681      77.44174       24.263186     -215.34584      104.42509     -141.75849      35.224417      3696157.8    
     31000   300.04796      0.89438382     0.67604415     1.570428       188.76966      107.46783      181.95507      297.449       -3.7867571      31.679694     -113.70696     -14.359561      52.543841      3691261.8    
     32000   299.15155      0.8917118      0.67520859     1.5669204      188.79829      107.46932      182.04585     -193.0329       160.38815     -90.20136       271.07091      74.546065      29.688485      3693714.4    
     33000   300.43469      0.89553658     0.67799139     1.573528       188.73962      107.47784      181.99001      153.16284     -23.011525      34.966703      177.78345      112.74231     -14.351027      3691726.8    
     34000   300.21034      0.89486784     0.67593208     1.5707999      188.75871      107.43895      181.86502     -29.377344      62.988097     -85.707418     -6.4276547     -39.832106     -80.341006      3688229.5    
     35000   300.22796      0.89492036     0.67691876     1.5718391      188.78578      107.46085      181.97074     -130.62944     -67.813544     -37.50117      -145.4821       36.352644     -34.780664      3691654.8    
     36000   299.99761      0.89423373     0.67548312     1.5697169      188.8799       107.47626      181.95938     -92.069443      148.18126      3.6394708     -62.865255      63.651672     -6.9918236      3693794.6    
     37000   300.32926      0.89522232     0.67565709     1.5708794      188.71674      107.41581      181.99197     -10.515232     -80.855973     -164.41544     -158.96538     -34.476644      37.082086      3689188.7    
     38000   300.10071      0.89454106     0.67686614     1.5714072      188.8243       107.41172      182.09423     -333.83317     -165.49437     -76.4157       -309.22081      40.405622      94.251773      3693224.6    
     39000   300.54805      0.89587449     0.67488057     1.5707551      188.84142      107.39297      182.00915     -83.542186     -110.58917     -102.15268     -210.75134      46.491518      82.887364      3691189.5    
     40000   300.02766      0.8943233      0.67456454     1.5688878      188.76906      107.41092      182.08547      197.7301      -87.467079     -138.14541      72.326025     -12.983386      83.04631       3691938.9    
     41000   300.42726      0.89551442     0.67598232     1.5714967      188.8197       107.44536      182.04581      153.64128      230.66991      88.626262     -123.76365      39.31764      -86.438187      3693308.9    
     42000   300.18925      0.89480498     0.67377769     1.5685827      188.74709      107.43684      182.02927      160.03076     -13.834525     -47.846257     -29.906398     -6.9277437     -27.164733      3691260.8    
     43000   300.16019      0.89471836     0.67499552     1.5697139      188.78362      107.45027      182.00389     -119.81456     -128.77371      52.60871      -70.714371     -115.9509       118.55425      3691921.9    
     44000   299.71975      0.8934055      0.67454688     1.5679524      188.681        107.47578      182.05346      39.267152     -187.85755      113.3157       23.366737     -47.548159      23.528179      3691796.1    
     45000   299.91098      0.89397551     0.67675785     1.5707334      188.77461      107.43         181.94276     -299.36531     -288.10395     -170.12476     -251.58467     -71.353711      105.09946      3689809.3    
     46000   299.69575      0.89333396     0.67387092     1.5672049      188.72585      107.40033      182.01744      68.456181     -310.73962      139.98317      104.05156     -59.496336     -18.486125      3689351.5    
     47000   299.84822      0.89378842     0.67416485     1.5679533      188.74092      107.42026      182.04689      247.18481      373.24632      13.115169      23.30118       35.417114     -97.874005      3690927.7    
     48000   299.85234      0.8938007      0.67587965     1.5696803      188.82761      107.42563      182.03499      75.509312     -86.064447      38.498771      8.9665731     -25.924403      167.59193      3692566.4    
     49000   299.61266      0.89308628     0.67616382     1.5692501      188.74792      107.4048       182.03495     -59.996566      190.05036     -258.65902      32.939656      44.501911     -75.558155      3690291      
     50000   299.54629      0.89288844     0.6755794      1.5684678      188.80866      107.44838      181.92888     -158.22627      201.49742     -41.826342     -0.2396972     -155.4278       2.9367824      3690824.7    
     50066   300.15078      0.8946903      0.67420195     1.5688923      188.82297      107.46697      181.92551     -10.655466      64.828491      210.97228     -40.857641     -131.48732      53.938005      3691674.7    
Loop time of 769.249 on 256 procs for 50000 steps with 414720 atoms

Performance: 5.616 ns/day, 4.274 hours/ns, 64.998 timesteps/s, 26.956 Matom-step/s
99.4% CPU use with 256 MPI tasks x no OpenMP threads

MPI task timing breakdown:
Section |  min time  |  avg time  |  max time  |%varavg| %total
---------------------------------------------------------------
Pair    | 339.09     | 344.44     | 350.96     |  12.1 | 44.78
Bond    | 15.171     | 15.473     | 16.008     |   3.4 |  2.01
Kspace  | 105.67     | 117        | 124.14     |  38.0 | 15.21
Neigh   | 170.6      | 175.88     | 179.98     |  21.3 | 22.86
Comm    | 73.85      | 86.433     | 105.77     |  94.6 | 11.24
Output  | 0.021103   | 0.03996    | 0.055147   |   4.9 |  0.01
Modify  | 19.263     | 25.842     | 30.257     |  62.2 |  3.36
Other   |            | 4.144      |            |       |  0.54

Nlocal:           1620 ave        1644 max        1596 min
Histogram: 2 7 20 45 52 58 38 24 8 2
Nghost:        8469.58 ave        8581 max        8380 min
Histogram: 11 17 40 44 42 43 27 23 6 3
Neighs:         383148 ave      390961 max      377327 min
Histogram: 13 24 28 53 45 45 21 18 7 2

Total # of neighbors = 98085975
Ave neighs/atom = 236.51132
Ave special neighs/atom = 9.4
Neighbor list builds = 6916
Dangerous builds = 1
unfix           1
undump          1

variable	yzv 	equal	yz
variable	yzzo	equal	${yzv}
variable	yzzo	equal	-6.30576165965616

#========================DEFORMATION
reset_timestep  0
dump            1 all custom ${dump_steps} shear.*.dump element id mol type x y z
dump            1 all custom 30000 shear.*.dump element id mol type x y z
dump_modify     1 element ${ele_string}
dump_modify     1 element C C H
compute         cc1 all chunk/atom molecule
compute         myChunk all com/chunk cc1

fix             1 all nph x ${patm} ${patm} ${pdamp}  y ${patm} ${patm} ${pdamp} z ${patm} ${patm} ${pdamp} xy ${patm} ${patm} ${pdamp} fixedpoint ${xcm} ${ycm} ${zcm}
fix             1 all nph x 1 ${patm} ${pdamp}  y ${patm} ${patm} ${pdamp} z ${patm} ${patm} ${pdamp} xy ${patm} ${patm} ${pdamp} fixedpoint ${xcm} ${ycm} ${zcm}
fix             1 all nph x 1 1 ${pdamp}  y ${patm} ${patm} ${pdamp} z ${patm} ${patm} ${pdamp} xy ${patm} ${patm} ${pdamp} fixedpoint ${xcm} ${ycm} ${zcm}
fix             1 all nph x 1 1 1000  y ${patm} ${patm} ${pdamp} z ${patm} ${patm} ${pdamp} xy ${patm} ${patm} ${pdamp} fixedpoint ${xcm} ${ycm} ${zcm}
fix             1 all nph x 1 1 1000  y 1 ${patm} ${pdamp} z ${patm} ${patm} ${pdamp} xy ${patm} ${patm} ${pdamp} fixedpoint ${xcm} ${ycm} ${zcm}
fix             1 all nph x 1 1 1000  y 1 1 ${pdamp} z ${patm} ${patm} ${pdamp} xy ${patm} ${patm} ${pdamp} fixedpoint ${xcm} ${ycm} ${zcm}
fix             1 all nph x 1 1 1000  y 1 1 1000 z ${patm} ${patm} ${pdamp} xy ${patm} ${patm} ${pdamp} fixedpoint ${xcm} ${ycm} ${zcm}
fix             1 all nph x 1 1 1000  y 1 1 1000 z 1 ${patm} ${pdamp} xy ${patm} ${patm} ${pdamp} fixedpoint ${xcm} ${ycm} ${zcm}
fix             1 all nph x 1 1 1000  y 1 1 1000 z 1 1 ${pdamp} xy ${patm} ${patm} ${pdamp} fixedpoint ${xcm} ${ycm} ${zcm}
fix             1 all nph x 1 1 1000  y 1 1 1000 z 1 1 1000 xy ${patm} ${patm} ${pdamp} fixedpoint ${xcm} ${ycm} ${zcm}
fix             1 all nph x 1 1 1000  y 1 1 1000 z 1 1 1000 xy 1 ${patm} ${pdamp} fixedpoint ${xcm} ${ycm} ${zcm}
fix             1 all nph x 1 1 1000  y 1 1 1000 z 1 1 1000 xy 1 1 ${pdamp} fixedpoint ${xcm} ${ycm} ${zcm}
fix             1 all nph x 1 1 1000  y 1 1 1000 z 1 1 1000 xy 1 1 1000 fixedpoint ${xcm} ${ycm} ${zcm}
fix             1 all nph x 1 1 1000  y 1 1 1000 z 1 1 1000 xy 1 1 1000 fixedpoint 85.02833104526 ${ycm} ${zcm}
fix             1 all nph x 1 1 1000  y 1 1 1000 z 1 1 1000 xy 1 1 1000 fixedpoint 85.02833104526 49.325075314052 ${zcm}
fix             1 all nph x 1 1 1000  y 1 1 1000 z 1 1 1000 xy 1 1 1000 fixedpoint 85.02833104526 49.325075314052 86.2722299428765
#fix             1 all nph tri ${patm} ${patm} ${pdamp}
fix             2 all ave/time 2 100 ${thermo} v_strain v_sxx v_syy v_szz v_sxz v_syz v_sxy v_pe file output.dat
fix             2 all ave/time 2 100 5000 v_strain v_sxx v_syy v_szz v_sxz v_syz v_sxy v_pe file output.dat
fix             6 all ave/time 2 100 ${thermo} c_myChunk[*] file center.dat mode vector
fix             6 all ave/time 2 100 5000 c_myChunk[*] file center.dat mode vector
fix             7 all print ${thermo} "${xhi} ${xlo} ${yhi} ${ylo} ${zhi} ${zlo} ${xy} ${xz} ${yz}" screen no file box_parameters.dat
fix             7 all print 5000 "${xhi} ${xlo} ${yhi} ${ylo} ${zhi} ${zlo} ${xy} ${xz} ${yz}" screen no file box_parameters.dat


#======================== load
fix             3 all deform 1 xz erate ${srate} units box remap x flip no
fix             3 all deform 1 xz erate 2e-07 units box remap x flip no
run             ${steps}
run             1500000
PPPM initialization ...
  using 12-bit tables for long-range coulomb (../kspace.cpp:342)
  G vector (1/distance) = 0.29202899
  grid = 32 32 60
  stencil order = 6
  estimated absolute RMS force accuracy = 3.4436319
  estimated relative force accuracy = 0.010370395
  using double precision KISS FFT
  3d grid and FFT values/proc = 2310 256
Generated 3 of 3 mixed pair_coeff terms from arithmetic mixing rule
Per MPI rank memory allocation (min/avg/max) = 16.4 | 16.41 | 16.41 Mbytes
   Step          Temp          KinEng         PotEng         TotEng           Lx             Ly             Lz            Pxx            Pyy            Pzz            Pxy            Pxz            Pyz           Volume    
         0   300.15078      0.8946903      0.67420195     1.5688923      188.82297      107.46697      181.92551     -10.655466      64.828491      210.97228     -40.857641     -131.48732      53.938005      3691674.7    
      1000   299.95559      0.89410847     0.67533589     1.5694444      188.87171      107.43033      181.99193      74.789859     -335.61704      29.752644     -141.5338       14.213924      53.29058       3692716.4    
      2000   299.82557      0.89372091     0.67592481     1.5696457      188.76005      107.40724      182.02669      144.67121      208.26211      203.01112     -76.353157      26.401874      135.13384      3690444.8    
      3000   299.51437      0.89279328     0.67403484     1.5668281      188.77443      107.41258      182.02554     -325.23796      0.28135511    -79.727307     -76.863236     -36.344655     -124.05799      3690886      
      4000   299.53506      0.89285496     0.67428393     1.5671389      188.80082      107.4329       182.07727     -13.9284       -87.526315     -207.26997     -27.433955     -14.877225      55.374563      3693149.9    
      5000   300.0128       0.89427902     0.67623155     1.5705106      188.79553      107.43767      182.07868      90.528718      110.08243      177.00978     -123.96114     -123.40593     -59.156901      3693238.8    
      6000   299.88196      0.89388899     0.67833475     1.5722237      188.81764      107.41407      182.0338      -385.4951      -20.03537       152.08325      99.460646     -96.103221     -23.280781      3691949.8    
      7000   299.26615      0.8920534      0.67438022     1.5664336      188.74824      107.41919      182.01272      81.58863       103.61917      5.3824823      133.7101       41.69653      -17.921608      3690341.2    
      8000   300.39437      0.8954164      0.67527291     1.5706893      188.76898      107.43973      182.07109     -382.43914      97.733036     -96.358242      85.661419     -92.715024     -39.711171      3692636      
      9000   300.08919      0.8945067      0.67415535     1.568662       188.68723      107.42593      182.03411      165.20392      220.52867      187.74874     -3.3975479      13.74905      -141.285        3689813.3    
     10000   300.25483      0.89500047     0.67641965     1.5714201      188.8053       107.45257      181.97325     -5.0739593     -100.0456       75.045113      116.17424      48.611329     -112.13016      3691803.1    
     11000   299.4354       0.8925579      0.67649449     1.5690524      188.84873      107.47388      181.95109     -25.467086     -99.315222      16.016898      99.372122      8.1772998     -37.039813      3692934.8    
     12000   299.99492      0.8942257      0.67394624     1.5681719      188.71585      107.40666      181.98411      166.63617     -87.642278     -8.6694829     -109.64765     -75.483586     -55.090702      3688697.8    
     13000   300.45287      0.89559076     0.67399038     1.5695811      188.67087      107.48932      182.11851      299.63923     -411.03399     -84.127211     -54.861563     -82.343195     -55.437314      3693382.3    
     14000   300.4908       0.89570384     0.67750503     1.5732089      188.83946      107.46425      182.01541     -508.1186      -154.05975      87.482166     -281.06932      58.144628      63.299988      3693728.2    
     15000   300.2241       0.89490887     0.67380253     1.5687114      188.8012       107.42499      182.01737     -394.65082     -154.27778     -20.718012     -16.06121      -57.779564     -33.139544      3691670      
     16000   299.93117      0.8940357      0.67650958     1.5705453      188.8231       107.43877      181.98788     -280.42117      20.051761     -21.980147     -227.04735     -28.689779      93.50023       3691973.9    
     17000   299.60441      0.89306169     0.67527532     1.568337       188.79773      107.45491      181.99864     -177.08009     -84.925555     -119.93131      128.93758      32.285793     -41.027569      3692250.7    
     18000   299.39319      0.89243208     0.67537099     1.5678031      188.79383      107.43535      182.12473      112.21176     -221.67842     -80.276062      177.52325      34.383759      11.578028      3694059.8    
     19000   299.78472      0.89359915     0.67543078     1.5690299      188.77682      107.44165      182.13711      233.95651     -146.29099     -337.44367     -55.534218      12.881036      91.031515      3694194.7    
     20000   300.00226      0.89424759     0.67491036     1.569158       188.8835       107.40046      181.94917      182.66455      502.56731     -66.048287      83.076723     -84.452506      100.93013      3691052.6    
     21000   300.05631      0.89440871     0.67508446     1.5694932      188.82076      107.44827      182.03128      163.64482     -411.69504     -75.229904     -49.38869      -49.399632      24.662884      3693135.1    
     22000   300.28042      0.89507674     0.67483225     1.569909       188.80665      107.42357      182.10469      64.305796      142.92748      105.56464     -144.39794      16.320705      58.442032      3693499      
     23000   300.71273      0.89636538     0.67548533     1.5718507      188.71506      107.41927      181.96684      223.06982      75.146644      59.973168     -15.497448     -41.426248      43.442152      3688765.1    
     24000   300.45479      0.8955965      0.67520391     1.5708004      188.76635      107.46097      182.00602     -305.90194     -17.893973     -86.825798      22.772512      35.733643     -49.290832      3691994.8    
     25000   300.19545      0.89482347     0.67432136     1.5691448      188.71987      107.47713      181.99176      3.0799711      35.095968      109.58635     -2.0275518     -130.17512     -91.705874      3691351.7    
     26000   299.6261       0.89312634     0.67591163     1.569038       188.74467      107.45689      182.00081      348.26745      135.32502      41.21649      -108.71344      1.2518701     -99.80456       3691325      
     27000   300.32274      0.89520288     0.67438427     1.5695871      188.71502      107.42988      181.86578      29.301811      118.37184      176.39979     -98.980648      7.7215734      156.9049       3687080      
     28000   300.02164      0.89430537     0.67764357     1.5719489      188.79007      107.45092      181.98425      221.80559     -19.568193     -20.746676     -174.29451     -136.30935     -36.508308      3691672.1    
     29000   299.92652      0.89402182     0.67695148     1.5709733      188.76107      107.4208       182.12854     -4.0376793     -139.31082     -88.769825      71.862837     -17.86126       6.0304879      3692995.9    
     30000   299.85616      0.8938121      0.67494604     1.5687581      188.68214      107.48181      182.07701      209.91081     -134.88558     -56.599088      0.089656654    32.510849     -148.30815      3692503      
     31000   300.7985       0.89662104     0.675341       1.571962       188.77206      107.47912      182.037        46.666633     -423.03003     -112.43544     -4.3622008     -7.3432161     -55.387137      3693358.8    
     32000   299.84235      0.89377093     0.67555697     1.5693279      188.77024      107.44768      182.02496     -1.8384369     -275.97244     -51.889269     -10.664719     -38.507549      72.903037      3691998.4    
     33000   300.38994      0.8954032      0.67456491     1.5699681      188.80912      107.44644      182.02219     -35.268039      103.26881      48.718953     -51.595596     -29.424522      127.62158      3692660.1    
     34000   299.9923       0.89421792     0.67406693     1.5682848      188.75964      107.45183      181.95921      58.423768      27.537371     -268.36321      23.737353     -6.2551884      81.553235      3690600.2    
     35000   299.88943      0.89391126     0.67211708     1.5660283      188.73666      107.41506      182.03778      494.77029      325.82203     -0.28784004    -124.48158     -120.15955     -102.35464      3690481.2    
     36000   300.0495       0.89438842     0.67708018     1.5714686      188.84164      107.41138      182.0463       420.4136       314.37467      210.45887      38.460689     -171.88081     -36.173331      3692580.1    
     37000   300.06887      0.89444615     0.67581035     1.5702565      188.74763      107.4256       181.98771     -139.84585     -57.528512     -47.028859     -45.478292     -84.012305     -75.104983      3690042.2    
     38000   300.23204      0.89493252     0.67441687     1.5693494      188.75462      107.47567      181.89513     -198.09973     -72.219247     -129.67719      79.494207      43.927806     -153.33625      3690020.9    
     39000   299.71892      0.89340301     0.67294725     1.5663503      188.67649      107.4541       181.92493      202.17697      110.12132      79.807388     -31.320609      44.815652      169.03598      3688357.2    
     40000   300.17522      0.89476316     0.67514707     1.5699102      188.75421      107.49152      182.08277     -132.67959      44.62738       155.45668     -49.569892     -64.059659     -59.548847      3694364.1    
     41000   300.53718      0.8958421      0.674875       1.5707171      188.85955      107.43944      181.97698     -401.45775     -90.676355      101.69287      13.214452     -76.899736     -1.2085701      3692488.4    
     42000   300.17741      0.8947697      0.67531542     1.5700851      188.74432      107.41758      181.90868      93.847415      32.718127     -39.733697      3.2786022      54.293101      30.485444      3688099.8    
     43000   299.5795       0.89298743     0.67600696     1.5689944      188.80722      107.4388       181.99997     -150.22083      207.75719      186.8894       107.23629     -13.753133     -21.899225      3691909.6    
     44000   300.46909      0.89563913     0.67557386     1.571213       188.73917      107.4467       182.01875      232.77898     -146.07225      226.56635      88.464976     -30.727595      64.685534      3691231.2    
     45000   299.60016      0.89304901     0.6753093      1.5683583      188.73533      107.44445      182.05207      454.92201     -24.737299      10.379832      0.33162747    -35.265042     -27.199233      3691754.5    
     46000   300.5442       0.89586301     0.67524454     1.5711076      188.71553      107.44242      182.09987     -20.820023     -96.111204      115.48843     -189.41946      8.5458704     -115.39247      3692266.9    
     47000   299.45654      0.89262092     0.67565262     1.5682735      188.84076      107.46856      182.03577     -55.290765     -216.58697     -187.75575      102.86562     -41.062083      28.395315      3694314.7    
     48000   299.97125      0.89415515     0.67539635     1.5695515      188.74666      107.47201      182.03095     -170.78682      95.650324     -160.4158       31.8672       -104.46327      59.745038      3692494.7    
     49000   299.9369       0.89405278     0.67373915     1.5677919      188.80811      107.45651      181.94069     -233.52562      77.359256     -317.02558     -1.4649206     -83.345421      27.970541      3691332.8    
     50000   300.11807      0.89459282     0.67471283     1.5693056      188.71033      107.43585      181.93657     -510.64525     -424.08636     -123.75015     -45.957626      8.9719012     -37.239819      3688628.4    
     51000   299.86951      0.8938519      0.673945       1.5677969      188.90206      107.39755      181.7982      -208.40528     -133.66013     -86.239232     -160.80561     -162.07853      8.5988281      3688252.6    
     52000   300.1423       0.89466503     0.6757264      1.5703914      188.73248      107.45087      182.06342      524.81206      198.88871      55.24569       89.906761      33.37467      -55.300228      3692149.6    
     53000   299.78615      0.8936034      0.67518059     1.568784       188.72791      107.42725      181.99838     -282.02403     -34.296136     -52.661603      81.341937     -188.04961     -17.565993      3689929.9    
     54000   300.20247      0.89484437     0.67445276     1.5692971      188.76949      107.47614      181.99436     -184.68197     -465.2041       164.89327     -142.5765      -10.179387     -74.167507      3692341      
     55000   300.26934      0.89504371     0.67622898     1.5712727      188.69819      107.48056      181.94301     -18.6091       -147.77113      93.184848      24.749902     -66.938788     -27.005161      3690056.7    
     56000   300.76973      0.89653528     0.67378619     1.5703215      188.66264      107.4656       181.94575     -91.213515      228.68563      61.006235     -72.109049     -72.490905      11.958908      3688903.4    
     57000   299.78598      0.89360291     0.67486069     1.5684636      188.75664      107.45713      182.05973      126.5483       160.48291      18.02826       37.537851      26.83511      -24.099597      3692762.3    
     58000   299.18676      0.89181675     0.67795546     1.5697722      188.73804      107.49454      182.07586     -74.574186      104.56948      125.12206      76.937019     -75.138221     -72.780291      3694011.2    
     59000   300.32459      0.89520839     0.67494893     1.5701573      188.75957      107.42185      181.96065      273.20882      117.41999      71.314052      133.51285     -202.21862     -125.61588      3689598.4    
     60000   299.87548      0.89386968     0.67435511     1.5682248      188.74241      107.46467      182.09636      0.16370419    -171.00347     -248.91809      168.83556      7.6615208     -52.984049      3693485.9    
     61000   300.53923      0.8958482      0.6739575      1.5698057      188.77009      107.4108       182.12784      87.568558      87.069528      5.7925489     -119.90913     -15.959481     -48.790522      3692814.5    
     62000   300.1955       0.89482362     0.67680319     1.5716268      188.78031      107.45141      181.95969      99.867315      133.90979      120.28988     -91.475157      2.1699478     -147.815        3690999.5    
     63000   300.30335      0.8951451      0.67681476     1.5719599      188.7511       107.505        181.97172     -74.363686     -221.57449     -68.950459      50.016702     -81.564703     -12.706999      3692513.1    
     64000   300.14899      0.89468497     0.67431747     1.5690024      188.70249      107.42731      182.00859      171.76893     -58.393016     -163.52157     -140.73789     -196.56357     -32.045804      3689641.7    
     65000   300.718        0.89638106     0.676352       1.5727331      188.73652      107.39708      182.03159     -75.10024       558.40625     -77.473139     -35.351325     -57.883887     -151.59419      3689734.9    
     66000   299.96804      0.89414559     0.67374146     1.567887       188.69414      107.41703      181.95267     -129.7468       247.30871      10.558646     -6.9533182     -19.244602     -116.76643      3687992.2    
     67000   300.23852      0.89495183     0.67301246     1.5679643      188.60983      107.47994      182.08351     -161.84311      230.24257      150.52388     -288.01838      19.193115      117.27243      3691155.8    
     68000   300.31982      0.89519419     0.67423754     1.5694317      188.71586      107.48312      181.95982      141.37622     -71.677611     -41.514773     -338.05699      51.338186     -124.5865       3690831      
     69000   299.98713      0.8942025      0.67373376     1.5679363      188.62848      107.48899      182.02333     -67.118339     -282.03051      155.6517      -9.4498181     -197.60312     -125.68461      3690611.4    
     70000   300.28467      0.89508941     0.67527294     1.5703624      188.8026       107.44423      182.03538      138.2156      -43.174872     -236.21106     -55.089548     -48.038181      61.850977      3692724.2    
     71000   300.6256       0.89610565     0.67599459     1.5721002      188.73157      107.45338      182.04882      59.990313     -93.67066      -64.554032      57.435232      21.431764      78.866698      3691921.9    
     72000   299.72256      0.89341387     0.67553401     1.5689479      188.75276      107.40586      181.83568     -41.405653      211.32342      224.83405      26.180642     -6.5336613     -24.469079      3686382.4    
     73000   300.4531       0.89559146     0.67323085     1.5688223      188.65281      107.45085      181.96332      45.030256      105.61765     -26.82044       112.15544     -94.383661      61.549465      3688561      
     74000   299.68285      0.89329549     0.67467802     1.5679735      188.71731      107.44781      182.01657     -27.645859      142.79866     -117.0176       14.968959     -85.452833      50.743238      3690797.5    
     75000   300.22802      0.89492053     0.67537243     1.570293       188.76056      107.46219      182.03676     -249.19048      89.977198      18.906025     -68.49856      -307.98017     -6.5656302      3692547      
     76000   299.96451      0.89413506     0.67393093     1.568066       188.72059      107.45648      182.05337      137.23566     -16.745523     -105.39163      122.97382      86.808418     -23.600153      3691906      
     77000   300.21633      0.89488568     0.67505873     1.5699444      188.68275      107.48967      181.89916      168.90529     -145.56918     -79.92953       145.13019     -7.487696      -94.999551      3689178.2    
     78000   300.2402       0.89495684     0.67532739     1.5702842      188.70981      107.49771      182.06632     -148.09914     -73.352473      25.169396     -44.216599     -155.38273     -98.583086      3693374      
     79000   300.35288      0.89529272     0.67731837     1.5726111      188.71283      107.47382      182.14317     -357.73638     -240.66921      34.261297      100.64738     -150.21926     -81.243781      3694171.4    
     80000   299.88903      0.89391009     0.67457259     1.5684827      188.71868      107.4281       181.94279      4.5188715      64.903587     -22.930954     -138.0572      -110.7317      -53.276823      3688651.6    
     81000   300.2928       0.89511365     0.67406241     1.5691761      188.81419      107.46873      181.98482      81.60631      -140.20095     -185.77679     -66.058019     -15.709719     -36.485757      3692766.9    
     82000   299.92451      0.89401584     0.67516636     1.5691822      188.75712      107.44671      182.01601      365.88315     -446.13827      58.460708      123.41409     -76.038926      5.6338107      3691527.1    
     83000   300.01537      0.89428668     0.67439351     1.5686802      188.69744      107.46454      182.02897     -27.579287      219.14015      54.784182     -9.4182408     -129.33484     -60.28796       3691235.2    
     84000   300.40023      0.89543387     0.67488429     1.5703182      188.79556      107.46557      181.98694     -0.47553352    -40.127915     -164.28662      123.68222     -95.711356      110.01736      3692337.1    
     85000   300.07897      0.89447624     0.67398316     1.5684594      188.71485      107.47652      181.87566     -125.06554     -261.58747      241.01908      211.37479     -70.633031     -9.4929896      3688877.7    
     86000   300.32919      0.89522211     0.67358301     1.5688051      188.69807      107.47223      181.9828      -29.564999     -120.78105      229.56937      87.062216     -116.61059     -68.103727      3690575.1    
     87000   300.19208      0.89481341     0.67540872     1.5702221      188.72944      107.45452      182.04996      190.53276     -255.59077     -157.3063      -114.70045     -75.668941     -54.371075      3691942.6    
     88000   300.21432      0.89487969     0.67326585     1.5681455      188.63996      107.44193      181.98625      297.60491      164.05609     -53.941694     -172.78507      21.76597      -102.90781      3688468.1    
     89000   299.54575      0.89288683     0.67313846     1.5660253      188.64629      107.4405       181.90565      314.82475     -221.49297      26.09911       87.880432     -154.30903     -73.160147      3686909.4    
     90000   299.4474       0.89259368     0.67442037     1.567014       188.68089      107.45324      182.01678      211.45268      20.848049      95.717318      34.928259     -119.95703     -114.34956      3690276.1    
     91000   300.42399      0.89550468     0.67268164     1.5681863      188.73939      107.43613      182.00975     -120.03964      221.53074     -158.77619      111.86626     -296.6323      -69.508814      3690690.1    
     92000   300.70888      0.89635388     0.67553376     1.5718876      188.69186      107.4241       182.0317       307.81417      110.22583      112.94809      98.546826     -35.901885     -17.613137      3689792.3    
     93000   300.40335      0.89544316     0.67637754     1.5718207      188.6702       107.46702      182.09327      274.92999     -65.247634      107.14799      28.800887     -89.178607      19.630136      3692091.2    
     94000   300.20141      0.89484123     0.67541305     1.5702543      188.71439      107.48202      182.02232     -23.012416      310.24882      217.06233      28.637673     -87.669559      18.087487      3692032.3    
     95000   300.58388      0.89598128     0.67514943     1.5711307      188.73663      107.46448      181.90466     -166.39153     -1.560984       247.92552      30.332748     -96.752897     -56.594396      3689478.2    
     96000   299.10434      0.89157108     0.67539395     1.566965       188.71366      107.52718      182.06985     -170.95531      95.395048      11.859615     -72.248263     -65.178242     -51.002024      3694533.5    
     97000   300.38511      0.89538879     0.67472154     1.5701103      188.71377      107.50417      182.11957      245.84291     -46.976844     -214.74844     -10.949036     -50.026848      22.012925      3694753.7    
     98000   299.60944      0.89307669     0.67224538     1.5653221      188.67914      107.43619      182.02617      42.225867      146.97534      109.67352     -52.59513      -236.65895     -31.554025      3689846.6    
     99000   299.97836      0.89417637     0.67653758     1.5707139      188.71924      107.45299      182.10505     -248.72495     -128.24585      59.234866     -40.902555     -53.355424     -24.420094      3692807.7    
    100000   300.15919      0.89471538     0.67725372     1.5719691      188.66157      107.4819       182.02308     -426.44955     -82.540352     -64.273082      31.082673     -171.9832      -52.533572      3691009.9    
    101000   299.70904      0.89337356     0.67527556     1.5686491      188.66286      107.48634      181.93067     -198.93246     -377.45998     -126.83536      149.48614      7.9793775      37.675555      3689313.8    
    102000   300.16069      0.89471985     0.67233224     1.5670521      188.68895      107.44469      182.04238      199.34864      70.748926     -40.092942      293.84731      36.648281     -68.949741      3690659      
    103000   299.78978      0.89361425     0.67380768     1.5674219      188.63883      107.47162      182.05874     -301.49691     -151.68095     -39.961325      163.30813     -41.601713      65.03908       3690935.3    
    104000   300.66823      0.89623272     0.67576173     1.5719945      188.67309      107.5486       182.0401       239.53394      103.8732      -83.933947      90.431482     -164.87795     -77.960434      3693871.7    
    105000   300.65606      0.89619644     0.67657586     1.5727723      188.77056      107.47809      182.03733     -72.33941      -312.47922     -312.8821      -208.25063     -215.72378     -84.865084      3693300.4    
    106000   300.27986      0.89507507     0.67488832     1.5699634      188.71528      107.47063      182.04552      466.0775      -408.35333     -56.65332       25.785081     -149.477       -78.520404      3692129      
    107000   299.55054      0.8929011      0.67567235     1.5685734      188.67678      107.45433      181.97372     -24.949361      112.80999      58.100563     -78.146121     -87.090372     -60.770603      3689360      
    108000   299.8034       0.89365485     0.67434378     1.5679986      188.63433      107.45122      181.94307      209.97706      83.849655      200.2348      -142.83992     -267.86346     -77.950456      3687802.2    
    109000   299.85967      0.89382257     0.67642886     1.5702514      188.74535      107.4677       182.01097     -203.38887     -63.132448     -0.35390612     227.03883     -138.94221     -59.112817      3691915.7    
    110000   299.94633      0.89408089     0.67550807     1.569589       188.76006      107.40622      181.99112      175.3          201.05917      154.66179     -12.992762     -202.43687      80.221723      3689688.6    
    111000   300.43704      0.8955436      0.67366973     1.5692133      188.68659      107.45762      181.99821     -56.017916     -138.33825     -198.97165     -155.1112      -11.440177     -94.775514      3690161.6    
    112000   300.0103       0.89427157     0.67503838     1.5693099      188.71811      107.42454      182.01858      25.4444        79.643604      53.438144     -200.81339     -71.416569      96.832684      3690054.7    
    113000   299.79796      0.89363863     0.67548417     1.5691228      188.73429      107.46478      181.98444     -191.86733      115.14774     -48.906188     -61.110461     -27.862196     -31.354744      3691061      
    114000   300.34212      0.89526065     0.67556158     1.5708222      188.62348      107.47413      182.04376      315.90525      159.3743      -181.50973      75.159398     -80.00316      -162.77955      3690417.3    
    115000   300.78874      0.89659193     0.67627009     1.572862       188.68905      107.45643      182.02797      141.25407      13.152794     -138.4406      -210.25458     -121.18777     -118.40495      3690772      
    116000   299.87152      0.89385788     0.6731478      1.5670057      188.62401      107.43261      181.98021      336.88489      272.20216     -33.78222       76.201864     -110.68828     -115.42332      3687714.1    
    117000   299.84461      0.89377768     0.67588672     1.5696644      188.69817      107.44762      182.01017     -231.09669      281.81505      142.89604      23.995217     -150.90501     -100.1398       3690287      
    118000   299.67965      0.89328597     0.67369341     1.5669794      188.71583      107.46442      182.06637      19.592752     -401.45345     -112.70842      68.23215      -102.58764     -74.501671      3692349.4    
    119000   299.74772      0.89348888     0.67523895     1.5687278      188.64173      107.4851       182.06265     -157.2257      -150.06041     -6.6036591     -157.12668     -74.322065      88.214073      3691534.3    
    120000   300.52515      0.89580622     0.67610839     1.5719146      188.66672      107.45788      182.02372      19.227553      3.8683771      20.253995      75.163118     -201.80599      30.747321      3690299.1    
    121000   300.38111      0.89537686     0.67431174     1.5696886      188.71642      107.44428      181.97858     -400.32507      346.2006      -92.227392     -15.617436      4.9707923      130.33984      3689888.7    
    122000   299.61058      0.89308006     0.67574263     1.5688227      188.65983      107.43989      182.06458      123.82638      32.747358     -231.4359       78.232469     -182.49451     -162.46589      3690374.5    
    123000   299.53674      0.89285997     0.67333265     1.5661926      188.70656      107.47769      182.01505      50.130071      29.599699     -103.79017      139.22962     -16.104283      14.955571      3691583      
    124000   300.31523      0.8951805      0.67523423     1.5704147      188.65368      107.48351      181.99265     -53.10423      -21.774284      32.698185      154.03677     -210.03143      9.421723       3690294      
    125000   300.14949      0.89468645     0.67556893     1.5702554      188.56543      107.46694      181.98913      303.59678      59.579809      22.225605     -185.58168     -212.68026     -25.110002      3687927.5    
    126000   299.86842      0.89384866     0.67542848     1.5692771      188.65922      107.44061      182.00746     -328.12835      118.6365      -155.72953      206.86779     -119.65129     -45.540208      3689229.5    
    127000   299.86231      0.89383043     0.67493004     1.5687605      188.74232      107.5032       181.95778     -16.193165      103.90003     -18.871995      108.62511      59.796497     -117.86868      3691996.6    
    128000   299.97408      0.89416359     0.67400203     1.5681656      188.67962      107.48408      181.9466      -158.33903      169.11555      87.350882     -85.998168     -103.98649      75.247183      3689887      
    129000   300.34453      0.89526783     0.67525621     1.570524       188.63796      107.53305      182.03727      22.243961     -229.22463     -54.045012      42.918189     -28.89172      -148.64037      3692592.3    
    130000   299.75264      0.89350352     0.67541179     1.5689153      188.57337      107.50172      181.99942      18.135755      3.3262329      88.811004      47.198052     -42.71317      -101.11708      3689485.4    
    131000   299.50921      0.89277792     0.67721215     1.5699901      188.64555      107.48852      182.09371     -104.64936      167.25863     -22.013054      55.445339     -131.08279      101.056        3692356.3    
    132000   299.75763      0.89351839     0.67614513     1.5696635      188.60104      107.513        181.87467     -39.218119     -234.38487     -71.871469     -93.937873     -104.11427     -86.702954      3687884.4    
    133000   299.59258      0.89302643     0.67414816     1.5671746      188.63893      107.47017      181.98693     -92.761587     -32.155661     -107.12797      101.21566     -116.18645     -4.5665394      3689431.5    
    134000   299.74742      0.89348798     0.67583135     1.5693193      188.69286      107.46819      182.12213     -314.47999     -76.296093     -129.83955     -43.614245     -283.06597      19.532805      3693160.2    
    135000   300.48496      0.89568644     0.67371487     1.5694013      188.73428      107.46385      182.10651     -256.74308     -60.892863     -98.855687      26.612619     -164.84908     -81.823613      3693504.8    
    136000   300.20795      0.89486072     0.67586041     1.5707211      188.69389      107.43817      181.99677     -240.31751      271.57365      32.779154     -95.195844     -177.41431      175.54895      3689607.2    
    137000   300.11593      0.89458644     0.67505313     1.5696396      188.68877      107.4836       182.0996      -356.00282     -617.27351     -82.263095      3.1156176     -142.72665     -57.667163      3693152.3    
    138000   299.8684       0.89384859     0.67649711     1.5703457      188.68         107.51287      181.97436     -362.5164      -214.55887      43.401021      190.31029     -62.940862      23.258588      3691446.1    
    139000   299.99288      0.89421964     0.67575724     1.5699769      188.62967      107.47915      182.02013      449.83816      431.46367      121.67231      52.281714     -93.672775      38.863325      3690231.8    
    140000   299.51016      0.89278074     0.67495213     1.5677329      188.63912      107.46473      182.06185      232.73438      257.63851      301.06575     -195.41635     -91.394724     -84.316957      3690767.4    
    141000   299.04942      0.89140736     0.67407781     1.5654852      188.73858      107.437        181.90558     -25.792074     -209.03966      211.64208     -253.07376     -185.51912     -175.81645      3688591.7    
    142000   299.98345      0.89419152     0.67521832     1.5694098      188.66935      107.43818      181.94034     -252.93894     -108.22936      100.08824      268.44427     -114.0308      -16.013897      3687983.6    
    143000   299.97966      0.89418023     0.67596571     1.5701459      188.65637      107.47438      182.0363      -110.84434      131.82905     -66.406208     -161.223       -42.344323     -93.616605      3690918.2    
    144000   299.82418      0.89371677     0.67557129     1.5692881      188.60095      107.48289      181.98314     -195.22316     -121.66207     -109.65804      117.62723     -204.33073     -30.700567      3689048.6    
    145000   299.76542      0.89354162     0.67565783     1.5691995      188.55552      107.49472      182.03433      14.886546      52.506606     -209.97154     -43.100072     -181.92892      66.740795      3689603.5    
    146000   300.52097      0.89579377     0.67707257     1.5728663      188.62498      107.49932      182.04255      152.65415     -0.83775213     49.184561     -53.734901     -124.6942      -17.910832      3691287.2    
    147000   299.71787      0.89339988     0.67478413     1.568184       188.65318      107.53131      181.96661     -171.63631     -81.782465      60.07987       82.963354     -130.3397      -77.253223      3691397      
    148000   300.76943      0.89653438     0.67254372     1.5690781      188.58853      107.45019      181.98646      233.5157      -124.34462      20.675623      18.976577     -177.73285     -35.112204      3687750.9    
    149000   300.22448      0.89490999     0.67759488     1.5725049      188.61406      107.52511      182.11287      74.073115     -54.442524      35.734296      141.54229     -376.75266     -33.492241      3693385.2    
    150000   300.72309      0.89639624     0.6790212      1.5754174      188.69601      107.48476      182.0153      -184.20792     -364.14289     -201.08702     -210.15037     -155.64294      59.090307      3691624.5    
    151000   299.85342      0.89380394     0.67235788     1.5661618      188.65283      107.48201      181.96849     -48.508525      473.58489     -103.05669     -57.511682     -213.5861      -110.47773      3689735.9    
    152000   299.62372      0.89311924     0.67535019     1.5684694      188.66472      107.49337      182.02429      264.99818     -205.04122     -14.32066      -126.55307     -124.95972      65.796356      3691490.2    
    153000   300.13357      0.894639       0.67498088     1.5696199      188.64076      107.49618      182.10637      253.2801       85.830539     -57.543586      146.38119     -211.46416     -13.60022       3692782.5    
    154000   299.94911      0.89408916     0.67447873     1.5685679      188.69759      107.44474      181.99581     -190.16517      63.196761     -137.06671     -107.82975     -311.47146     -71.903674      3689885.8    
    155000   300.26783      0.89503919     0.67416796     1.5692072      188.66303      107.457        182.03577      52.500627     -132.55988     -142.71556      21.716357     -148.43046     -100.36561      3690441      
    156000   299.76985      0.89355483     0.67470341     1.5682582      188.74309      107.4497       181.98818     -193.29984     -4.4316074     -12.402411      3.8099271     -171.02864      6.4027983      3690791      
    157000   299.42963      0.8925407      0.67489922     1.5674399      188.71578      107.44713      181.96184     -245.99071      251.72239     -46.231799      220.56041     -132.32283     -130.64051      3689634.7    
    158000   299.91426      0.89398528     0.67466199     1.5686473      188.72775      107.48683      182.05596     -376.791       -147.13351      97.867681     -45.852814     -210.08287     -24.111557      3693141.4    
    159000   299.67575      0.89327433     0.67440505     1.5676794      188.65904      107.49035      182.07096      111.72462     -55.554865     -80.098823     -130.82394     -131.39869     -137.83985      3692222      
    160000   299.83437      0.89374715     0.67271964     1.5664668      188.56739      107.47449      182.08565     -0.85969939     122.76577     -189.39776     -122.66265     -124.95393     -7.4124745      3690181.5    
    161000   300.25367      0.89499701     0.67805724     1.5730543      188.572        107.46302      182.0031       157.74067     -17.612449      152.07624      101.43165     -238.06044     -54.387722      3688204.8    
    162000   300.14203      0.89466421     0.67615978     1.570824       188.56446      107.52628      182.10608      187.95504     -30.453473      119.06275     -196.8699      -302.62627     -22.533549      3692316.3    
    163000   300.14269      0.8946662      0.67257411     1.5672403      188.6367       107.5056       182.04093      124.92049     -10.396837     -105.49949      159.6868      -213.18391     -66.143818      3691699.4    
    164000   299.63732      0.89315978     0.67567107     1.5688309      188.63079      107.45485      182.04837      39.244795      42.557677      110.76087      46.784148     -137.82522      19.884612      3689991.9    
    165000   299.81196      0.89368035     0.67317982     1.5668602      188.63772      107.48341      182.10952      155.8467       540.41513      64.16058       88.108818     -74.556846     -53.187668      3692347.9    
    166000   299.49367      0.89273159     0.67619396     1.5689255      188.76055      107.45898      182.07689     -430.62781     -273.72296     -137.58895      131.49539     -230.31775     -80.529166      3693250.6    
    167000   300.18909      0.8948045      0.67742584     1.5722303      188.68469      107.46096      182.17168     -115.10449     -171.98915      69.797631     -48.802165     -269.83214     -27.44283       3693756.5    
    168000   300.69851      0.89632297     0.67401787     1.5703408      188.58262      107.46466      182.0451       201.62851     -175.30943      212.88131      121.37257     -107.401        75.887731      3689319.8    
    169000   300.60839      0.89605434     0.67333966     1.569394       188.61975      107.47474      182.0085      -48.753054     -23.747701      111.61484      98.57591      -147.99046     -27.361837      3689650.6    
    170000   299.96631      0.89414043     0.676707       1.5708474      188.71343      107.4917       181.99742     -204.9344       36.618909      278.88376      150.0921      -157.66516      81.343863      3691840.9    
    171000   300.19133      0.89481117     0.67346839     1.5682796      188.77863      107.49953      181.98314      227.83889      149.4613       127.04454      94.24969      -193.14413      26.660127      3693095.6    
    172000   300.58153      0.8959743      0.67373759     1.5697119      188.55734      107.50312      182.0871       12.496626      281.25487      66.757138      81.953245     -112.41065     -31.806917      3690996.8    
    173000   299.7157       0.89339341     0.67483335     1.5682268      188.61548      107.49573      182.08143      247.46601      532.73869     -45.769019     -141.67892     -204.92894     -118.15668      3691766.5    
    174000   299.4037       0.89246339     0.67218359     1.564647       188.60692      107.46592      182.11462     -144.73576      61.607061     -96.042339     -159.90412     -58.923276     -118.03224      3691247.8    
    175000   300.22229      0.89490346     0.67531971     1.5702232      188.64566      107.49228      182.04717      210.93157      17.364809     -27.604018      56.81105      -161.87425     -172.52472      3691543.6    
    176000   299.94035      0.89406305     0.67409253     1.5681556      188.72061      107.47468      181.97536     -120.24732      179.21249     -78.788354      188.40751     -285.70714     -40.524379      3690949.3    
    177000   299.95487      0.89410633     0.67356145     1.5676678      188.5854       107.44925      181.99897      187.20571     -269.44751      20.439789     -97.465547     -189.96594      4.5839509      3687910.6    
    178000   300.09859      0.89453474     0.67444199     1.5689767      188.63475      107.49987      182.13881     -22.324254     -69.815351     -71.006927     -129.91401     -179.293       -108.86067      3693449.1    
    179000   299.63448      0.89315132     0.67465702     1.5678083      188.58372      107.48486      182.08255      195.47324      80.466455     -104.47746      107.55266     -259.53297     -41.250812      3690794.1    
    180000   300.50727      0.89575293     0.67515663     1.5709096      188.6332       107.49532      181.9788       239.00197     -199.53766      101.36581      20.116917     -263.94966     -65.294135      3690018      
    181000   300.45457      0.89559583     0.67443836     1.5700342      188.68622      107.47467      181.96163     -235.75953     -344.25981     -56.403821      60.445555     -276.81072      20.221023      3689997.8    
    182000   299.87627      0.89387206     0.67553177     1.5694038      188.6176       107.48575      182.12862     -9.7456721     -124.23911      42.234058      174.18437     -136.59334      113.42033      3692421.7    
    183000   300.00952      0.89426923     0.67570057     1.5699698      188.64526      107.50686      182.0795      -176.54978     -46.485475     -106.56234     -27.672255     -59.152622     -17.717974      3692692.2    
    184000   299.47328      0.8926708      0.67725469     1.5699255      188.60265      107.52832      182.14701      61.578752     -187.11791      3.3642599     -364.47668     -180.62937     -43.922743      3693964.3    
    185000   299.72873      0.89343225     0.67579491     1.5692272      188.69017      107.50976      182.03511      126.01751      185.18516      83.08096      -122.18906     -67.444272      95.563829      3692770.7    
    186000   300.15091      0.8946907      0.67660194     1.5712926      188.74359      107.51504      182.03112     -159.55687     -226.2733       56.561817     -347.75775     -188.56625     -64.337902      3693916.3    
    187000   299.94922      0.89408949     0.67571432     1.5698038      188.67075      107.53376      182.03465     -149.83553      60.261741     -52.202245     -17.880601     -212.87266     -122.84005      3693205.5    
    188000   300.06949      0.89444801     0.67723396     1.571682       188.56351      107.5608       182.0791       181.40496     -136.65597     -14.44959       69.063391     -177.33672     -49.95762       3692935.7    
    189000   300.39388      0.89541493     0.67661157     1.5720265      188.59447      107.49446      182.11378      107.23239     -83.579175     -221.19313      39.579854     -318.58169     -87.312013      3691967.3    
    190000   299.91753      0.89399504     0.67718791     1.5711829      188.61391      107.50515      182.10587     -71.392775     -111.23748      169.75536     -72.342846     -246.69992      1.437659       3692554.6    
    191000   300.30648      0.89515442     0.67332121     1.5684756      188.56722      107.49092      182.09725      26.114612      99.973844      25.212461      29.19887      -191.69877     -76.940401      3690977.4    
    192000   300.24387      0.8949678      0.67543538     1.5704032      188.58417      107.46676      182.00642      208.40342      53.850206      31.827569      99.492885     -181.42759      24.086421      3688638.6    
    193000   300.01819      0.89429508     0.67444696     1.568742       188.55176      107.4984       182.01217      117.80415     -15.838495     -106.01408      157.82923     -197.84679     -32.365077      3689207.1    
    194000   300.46514      0.89562735     0.67571825     1.5713456      188.57266      107.52302      182.14426      186.52559     -104.68993      0.8680783      100.0856      -176.84205     -37.74488       3693139.1    
    195000   300.16522      0.89473335     0.67434497     1.5690783      188.60878      107.51038      182.01698      112.32046      311.97945      69.999029      119.09871     -263.66422      40.977025      3690831.5    
    196000   300.17477      0.89476182     0.6735965      1.5683583      188.57996      107.44619      181.92153      168.04505      408.58995     -14.487164     -11.61026      -44.600128     -18.35075       3686130      
    197000   300.09445      0.89452241     0.67623297     1.5707554      188.69127      107.50203      181.9685      -185.50368      419.34305     -52.604528     -192.99077     -220.09         33.338912      3691175.4    
    198000   299.23214      0.89195203     0.67698143     1.5689335      188.66124      107.47827      182.12373     -114.67107     -79.33439      -1.9387159     -6.3132436     -47.194898      30.401523      3692919.9    
    199000   300.04748      0.89438239     0.67316268     1.5675451      188.72652      107.47232      182.02757     -152.47659      25.102911     -60.752012     -288.899       -306.52694     -69.782486      3692042.8    
    200000   300.45307      0.89559137     0.67471129     1.5703027      188.62071      107.47734      182.05296      63.820557      261.57748     -7.5431429      90.659955     -222.31784     -118.94105      3690659.9    
    201000   299.6296       0.89313678     0.67489106     1.5680278      188.53087      107.48114      182.01349      179.69041      378.09048      157.37892     -91.47198      -225.04035     -82.11497       3688232.7    
    202000   300.34955      0.89528279     0.67566943     1.5709522      188.56037      107.49668      181.97409      28.482364     -160.80516     -106.94898      7.4921549     -318.32051      101.19892      3688544.8    
    203000   300.10668      0.89455884     0.6771035      1.5716623      188.56048      107.50793      182.11718     -501.57149     -124.96948     -63.551651     -120.98863     -239.70269     -17.640864      3691833.2    
    204000   299.67668      0.89327711     0.67498044     1.5682576      188.62544      107.50207      182.11377     -100.25271     -65.272352      83.040901      23.428867     -198.66626     -35.571135      3692834.9    
    205000   299.50975      0.89277952     0.67497625     1.5677558      188.64708      107.45404      182.04921      130.0371       252.63094     -90.920192     -32.116428     -163.77145     -90.206595      3690299.6    
    206000   299.9653       0.89413744     0.6743935      1.5685309      188.59852      107.44613      182.0244      -163.09804     -115.35055     -25.293744      64.383767     -213.72765     -50.680921      3688575.3    
    207000   299.65087      0.89320018     0.67475552     1.5679557      188.59291      107.45457      182.06812     -149.21406     -114.71547      101.94122     -11.208124     -251.18861     -92.16091       3689641.3    
    208000   300.21467      0.89488075     0.67704651     1.5719273      188.64572      107.50094      182.05802     -243.86082     -227.59565      114.70584      115.85873     -73.548455     -132.77933      3692062.4    
    209000   299.80845      0.89366987     0.67436603     1.5680359      188.62586      107.50354      182.10438      48.043631     -292.0109       85.822237      71.525504     -145.84296      32.97623       3692703      
    210000   299.64551      0.89318419     0.67475755     1.5679417      188.62292      107.47986      181.9603      -170.30569      131.72638      111.58712     -104.48647     -289.03209      117.28468      3688911.2    
    211000   299.90784      0.89396616     0.67521268     1.5691788      188.67586      107.46979      182.0563      -61.615071     -226.81245      193.19096     -135.45651     -101.65508     -70.883234      3691547.6    
    212000   299.96557      0.89413822     0.67347472     1.5676129      188.61668      107.49951      182.05557     -38.069585     -208.96677     -59.47037       50.572203     -144.25473     -12.619951      3691395.1    
    213000   300.06564      0.89443653     0.67536518     1.5698017      188.70523      107.46615      181.97833     -276.68015      176.44983      280.1473       75.153582     -277.37616      49.766014      3690416.1    
    214000   300.62881      0.89611522     0.67457169     1.5706869      188.64626      107.47721      182.04634      87.548803      121.25859     -10.233571      275.57616     -215.96795      69.298146      3691021.1    
    215000   300.57049      0.89594138     0.67406254     1.5700039      188.63963      107.46674      182.07328      34.59377       82.963803     -41.13169      -311.96519     -338.77764     -51.016788      3691077.9    
    216000   300.37208      0.89534997     0.67578111     1.5711311      188.69208      107.45659      182.03587     -9.0350468      106.59487      53.053485     -9.0522249     -418.83194     -75.606968      3690997.1    
    217000   299.81182      0.89367993     0.67597438     1.5696543      188.62125      107.48764      182.06272      9.9493532      96.412571     -60.005405      17.942789     -103.25716     -82.853328      3691222      
    218000   299.68531      0.89330283     0.67498507     1.5682879      188.59307      107.47071      182.16265      98.899527      422.11711     -168.16634     -12.041396     -225.56081      8.0277684      3692114.9    
    219000   300.3986       0.89542902     0.67593701     1.571366       188.6254       107.52797      182.00757     -93.108745     -76.854608     -33.60784      -62.850474     -143.54155      80.132299      3691569.4    
    220000   300.21348      0.8948772      0.67519469     1.5700719      188.55849      107.48477      182.04416     -222.95135     -52.329532      206.86553     -66.922884     -178.27493     -104.32943      3689519      
    221000   299.67642      0.89327634     0.67463383     1.5679102      188.50763      107.53779      182.11096      67.36908       350.06922      22.913359     -49.282394     -182.84715     -19.928583      3691697.5    
    222000   300.21705      0.89488785     0.67785763     1.5727455      188.52839      107.53348      182.12503      257.44175     -80.156015     -16.015899      92.641578     -133.55679     -109.04403      3692241.4    
    223000   300.36566      0.89533081     0.67525923     1.57059        188.5268       107.50099      181.98132     -20.511969     -33.854656     -26.380505      51.826667     -163.80263     -21.689426      3688182.3    
    224000   299.89249      0.8939204      0.67459543     1.5685158      188.66586      107.44758      181.99487     -65.688366      211.07783     -142.51179      5.8325912     -156.11142      143.77896      3689343.4    
[...]
   2982000   299.43688      0.8925623      0.68043382     1.5729961      189.09001      107.42803      182.41567      69.991077      93.208607      54.261228      5.0533942      229.51514     -40.133199      3705512.9    
   2983000   299.2653       0.89205087     0.67811842     1.5701693      189.07622      107.40934      182.48311     -100.33209      100.81041     -167.97093      81.401666      302.47527      104.62318      3705967.6    
   2984000   300.46222      0.89561865     0.67870264     1.5743213      189.00312      107.352        182.43122      247.91903      203.87062     -31.509085     -66.177578      187.59526     -38.629586      3701504.5    
   2985000   300.03308      0.89433946     0.68061592     1.5749554      189.10639      107.44669      182.35418     -101.84395     -132.55526     -34.688685     -152.64634      341.57473      92.264918      3705228.3    
   2986000   299.3812       0.89239635     0.68172317     1.5741195      189.01349      107.47869      182.39473     -362.64666     -245.89814      111.95735     -246.38472      259.95385      5.8486649      3705334.8    
   2987000   299.47149      0.89266548     0.68115254     1.573818       189.04641      107.478        182.45657     -162.11007     -197.59079     -225.73713      153.28146      330.94507      89.383052      3707212.8    
   2988000   299.70263      0.89335446     0.68053636     1.5738908      189.09412      107.47127      182.49198     -167.83036      191.84885     -39.934039     -135.64027      210.88475      79.245056      3708636      
   2989000   300.04503      0.8943751      0.67948448     1.5738596      189.07389      107.43139      182.29144     -226.46942     -20.108036     -71.934165      2.5663025      183.80034      26.429919      3702789.7    
   2990000   300.121        0.89460153     0.68063021     1.5752317      189.13745      107.41686      182.40985     -94.338617     -41.816555     -141.36299      83.065708      329.3257       109.94719      3705938.9    
   2991000   299.98054      0.89418286     0.68289221     1.5770751      189.12889      107.40052      182.46295      429.12826     -102.46952      23.549795     -111.38623      181.88747      81.286622      3706286.4    
   2992000   300.2849       0.8950901      0.68053388     1.575624       189.06295      107.42336      182.44224      108.10501      277.706        29.07918      -41.24515       120.09353      39.459477      3705361.2    
   2993000   299.4611       0.8926345      0.68213811     1.5747726      189.13907      107.42282      182.38218      201.04624     -167.6608       7.1324128      39.548613      312.80178      1.6881707      3705614      
   2994000   300.21685      0.89488726     0.68086328     1.5757505      189.13313      107.45475      182.4149      -281.62779      91.369993      63.043754      166.75588      220.25215      29.958441      3707264.3    
   2995000   299.56887      0.89295575     0.68174061     1.5746964      189.06551      107.44914      182.43147      55.667373      42.689737     -58.14588      -26.309214      213.08102      68.023328      3706081.9    
   2996000   300.62367      0.89609991     0.6793189      1.5754188      189.10486      107.45176      182.47314     -72.491211      17.794168     -147.89987      12.099059      366.14566      28.248838      3707790.2    
   2997000   299.70814      0.89337088     0.68153841     1.5749093      189.02331      107.44242      182.32972     -265.73517     -27.475063     -74.05963       138.77335      416.33015      5.8554405      3702956.4    
   2998000   300.13548      0.8946447      0.67977249     1.5744172      188.94693      107.44672      182.28748     -46.797435     -91.004867     -144.1124       52.722839      260.94781      67.001446      3700750.9    
   2999000   300.07013      0.8944499      0.68068752     1.5751374      189.04869      107.42845      182.40177     -36.20131      -150.18002     -100.68657     -100.29222      275.69713     -31.37006       3704435.4    
   3000000   299.8318       0.8937395      0.67961907     1.5733586      189.0613       107.47787      182.40257     -3.460294      -59.094792     -91.797242      262.09463      269.59436     -120.05684      3706403.1    
Loop time of 23491 on 256 procs for 1500000 steps with 414720 atoms

Performance: 5.517 ns/day, 4.350 hours/ns, 63.854 timesteps/s, 26.482 Matom-step/s
99.4% CPU use with 256 MPI tasks x no OpenMP threads

MPI task timing breakdown:
Section |  min time  |  avg time  |  max time  |%varavg| %total
---------------------------------------------------------------
Pair    | 10216      | 10406      | 10581      |  69.9 | 44.30
Bond    | 455.36     | 464.64     | 482.46     |  18.6 |  1.98
Kspace  | 3271.9     | 3587.7     | 3814       | 212.2 | 15.27
Neigh   | 5123.7     | 5269.5     | 5379.4     | 105.6 | 22.43
Comm    | 2178.4     | 2526.8     | 3085.9     | 503.8 | 10.76
Output  | 1.0907     | 4.0962     | 4.3487     |  11.7 |  0.02
Modify  | 911.25     | 1102.7     | 1245.8     | 287.8 |  4.69
Other   |            | 130        |            |       |  0.55

Nlocal:           1620 ave        1641 max        1595 min
Histogram: 4 7 10 34 40 59 58 22 15 7
Nghost:         8435.6 ave        8513 max        8356 min
Histogram: 8 12 23 28 51 51 40 22 16 5
Neighs:         381846 ave      390701 max      373064 min
Histogram: 4 7 22 43 57 56 35 21 9 2

Total # of neighbors = 97752579
Ave neighs/atom = 235.70741
Ave special neighs/atom = 9.4
Neighbor list builds = 206834
Dangerous builds = 17
unfix           4

unfix           7  # box_parameters.dat
unfix           6  # center.dat
unfix           2  # output.dat
unfix           1
#======================NPT equilibration
fix             5 all nph tri ${patm} ${patm} ${pdamp} fixedpoint ${xcm} ${ycm} ${zcm} flip no
fix             5 all nph tri 1 ${patm} ${pdamp} fixedpoint ${xcm} ${ycm} ${zcm} flip no
fix             5 all nph tri 1 1 ${pdamp} fixedpoint ${xcm} ${ycm} ${zcm} flip no
fix             5 all nph tri 1 1 1000 fixedpoint ${xcm} ${ycm} ${zcm} flip no
fix             5 all nph tri 1 1 1000 fixedpoint 85.0319298487495 ${ycm} ${zcm} flip no
fix             5 all nph tri 1 1 1000 fixedpoint 85.0319298487495 49.3171275491764 ${zcm} flip no
fix             5 all nph tri 1 1 1000 fixedpoint 85.0319298487495 49.3171275491764 86.2722299428466 flip no
run             ${trelax}
run             50000
PPPM initialization ...
  using 12-bit tables for long-range coulomb (../kspace.cpp:342)
  G vector (1/distance) = 0.29202899
  grid = 32 32 60
  stencil order = 6
  estimated absolute RMS force accuracy = 3.4844243
  estimated relative force accuracy = 0.01049324
  using double precision KISS FFT
  3d grid and FFT values/proc = 2310 256
Generated 3 of 3 mixed pair_coeff terms from arithmetic mixing rule
Per MPI rank memory allocation (min/avg/max) = 18.44 | 18.45 | 18.45 Mbytes
   Step          Temp          KinEng         PotEng         TotEng           Lx             Ly             Lz            Pxx            Pyy            Pzz            Pxy            Pxz            Pyz           Volume    
   3000000   299.8318       0.8937395      0.67961908     1.5733586      189.0613       107.47787      182.40257     -3.4605896     -59.092086     -91.796998      262.09735      269.71297     -120.05629      3706403.1    
   3001000   300.34227      0.89526108     0.68085049     1.5761116      189.0816       107.4331       182.34258     -51.037623      17.172945     -49.197479      200.63359      217.08353      107.00923      3704038.2    
   3002000   299.98082      0.89418369     0.68052511     1.5747088      189.03651      107.42359      182.28402      381.06089      189.30497      49.271505      30.168938      209.71993     -89.482676      3701637.9    
   3003000   299.86803      0.89384748     0.67966129     1.5735088      189.01131      107.42197      182.27705      301.57946      199.26073      248.7872      -161.65901      115.14443      85.272701      3700947.2    
   3004000   300.54101      0.89585349     0.67925961     1.5751131      189.00683      107.42584      182.30607     -95.818824      33.707328      122.03595     -74.339375      140.77715      117.10314      3701582      
   3005000   300.69168      0.89630262     0.67814803     1.5744507      188.9286       107.45109      182.25189      25.257191      280.81042      211.48639     -40.463047      124.00189     -77.55559       3699819.9    
   3006000   299.93323      0.89404184     0.67944643     1.5734883      188.91552      107.44146      182.23678     -8.7143043      151.34796      75.516633      95.246747      117.60803      50.284222      3698925.3    
   3007000   301.04493      0.89735557     0.67714103     1.5744966      188.98665      107.44671      182.30989      175.07233      264.74058      32.768471     -69.622742     -51.091246     -83.084258      3701983.5    
   3008000   299.94819      0.89408641     0.67703227     1.5711187      188.83678      107.41212      182.16478     -384.15266     -266.52486      37.098238      135.65677      232.57827     -12.013077      3694913.7    
   3009000   300.05863      0.89441564     0.67790805     1.5723237      188.90879      107.45377      182.24442     -124.17959      187.15089      81.810253      7.6891362      41.639426     -14.579051      3699372.4    
   3010000   300.37611      0.89536196     0.67992174     1.5752837      188.89247      107.4449       182.1755       152.38069     -137.97728      78.032628     -20.518577     -72.33923       10.39281       3697348.9    
   3011000   299.53177      0.89284515     0.67772858     1.5705737      188.89921      107.46597      182.09009      67.073253      135.37613      45.344242     -26.327017      50.872961     -38.634699      3696472      
   3012000   299.32717      0.89223528     0.68000321     1.5722385      188.88459      107.52178      182.20437      58.938408     -121.42563      17.45663       79.24496       22.237428     -134.90173      3700426.2    
   3013000   300.20299      0.89484592     0.67617144     1.5710174      188.82768      107.48729      182.13601      7.7394502     -47.798322      34.257809      54.460815      110.91408     -63.35646       3696737.4    
   3014000   300.70111      0.89633073     0.6764716      1.5728023      188.79025      107.51048      182.09326      427.89812      233.50444      59.824306      17.745206     -18.172025      64.200096      3695934.3    
   3015000   300.96438      0.8971155      0.67569547     1.572811       188.84309      107.48699      182.10702     -91.00104      -250.50883     -22.886788      154.3842      -93.707578     -27.015962      3696440.1    
   3016000   299.74124      0.89346956     0.67711677     1.5705863      188.84763      107.47164      182.27646     -238.72845     -10.992218     -174.34567     -142.28503     -193.95933      36.667783      3699440.2    
   3017000   299.8503       0.89379462     0.67883869     1.5726333      188.92043      107.44837      182.26532      111.73212     -190.83301     -130.45625      102.3614       42.936283     -3.7418138      3699839      
   3018000   299.87498      0.89386819     0.67902201     1.5728902      188.87888      107.50665      182.09284      337.58535      264.06878      277.42182      21.969676      80.841088      11.186592      3697529      
   3019000   300.5113       0.89576496     0.67451995     1.5702849      188.84008      107.4804       182.18653     -222.10093      273.27372      20.346055     -14.009654      83.516617      169.31331      3697768.7    
   3020000   299.58391      0.89300058     0.67748455     1.5704851      188.7517       107.46151      182.12885      283.48989     -131.9419      -85.129187     -57.607516      49.843535      22.281422      3694218      
   3021000   300.09265      0.89451702     0.67807446     1.5725915      188.94456      107.47796      182.0834       208.78206      132.26439     -5.0064681      114.42217      81.877471     -97.59247       3697635.8    
   3022000   300.15981      0.89471723     0.67595885     1.5706761      188.81146      107.49903      182.07625     -166.78464     -122.05967      54.402141     -87.324019      104.96122     -103.29786      3695610.5    
   3023000   300.79131      0.8965996      0.67695826     1.5735579      188.78144      107.54472      182.13718     -211.1491      -493.41206     -109.43179      31.222822     -17.531271     -52.542909      3697830.6    
   3024000   299.99933      0.89423886     0.67845912     1.572698       188.89447      107.49023      182.16143     -15.108901      121.78494      0.58935712     36.738638      36.468294      21.315365      3698661.8    
   3025000   299.34151      0.89227803     0.67710127     1.5693793      188.8619       107.50269      182.15286     -59.092027      86.904086      58.687925     -226.82847     -104.59872     -73.425955      3698279.3    
   3026000   299.36137      0.89233724     0.67775574     1.570093       188.90531      107.48793      182.10177     -53.954468      53.107453      71.47719      -58.768944      78.628511     -106.60121      3697583.9    
   3027000   299.78345      0.89359536     0.67837816     1.5719735      188.79299      107.47507      182.06584      38.721734      95.345247      116.39273     -221.31336      48.894045      58.840816      3694214.1    
   3028000   299.80925      0.89367228     0.67850679     1.5721791      188.7669       107.47629      182.01886      6.0965506     -72.682999      177.75823     -24.957962      79.290445     -70.508419      3692792.4    
   3029000   300.17419      0.89476009     0.67767801     1.5724381      188.72366      107.48931      182.05516      275.87221     -45.832898      16.267393     -140.14179     -25.215587      25.524534      3693130      
   3030000   300.33206      0.89523066     0.67717163     1.5724023      188.8045       107.46804      182.16711      340.45649     -121.51513      11.003153      39.536633     -53.759474     -94.018805      3696252.4    
   3031000   299.93341      0.89404236     0.67788301     1.5719254      188.79862      107.46747      182.14221      57.900676      14.474155     -108.02939      57.642426      81.213382      28.664659      3695612.6    
   3032000   299.87006      0.89385353     0.67721711     1.5710706      188.80945      107.50369      182.1074       167.49969      176.73261      10.767229     -7.7078055      18.02217      -22.107178      3696363.8    
   3033000   300.32345      0.89520499     0.67732959     1.5725346      188.79493      107.47869      182.12242     -91.174302     -233.60773      95.736853      7.5408649      10.454084      43.832904      3695524.7    
   3034000   300.25749      0.89500838     0.677307       1.5723154      188.75101      107.50813      182.13468     -275.4632      -100.63529     -17.188972      159.83176      147.28192      93.804713      3695925.8    
   3035000   300.30595      0.89515283     0.67538698     1.5705398      188.85479      107.46814      182.06096      192.24653      229.81979     -15.244417      59.587879     -27.056735     -58.981853      3695086.1    
   3036000   300.40766      0.89545601     0.67806252     1.5735185      188.8445       107.43999      182.04206     -9.4497231     -234.81915     -60.832561     -3.091359       182.14684     -12.103136      3693533.7    
   3037000   300.09618      0.89452755     0.67805041     1.572578       188.84759      107.49735      182.09881     -57.77169       107.87663      70.327532     -229.60867     -176.68721     -13.161751      3696717.8    
   3038000   299.60817      0.89307288     0.67913728     1.5722102      188.82199      107.49832      182.18467     -41.524876     -152.39273     -156.55611     -121.22839      32.12722       145.50078      3697992.9    
   3039000   299.96328      0.8941314      0.67700204     1.5711334      188.86326      107.43676      182.12618     -66.782858      80.001771      265.49718     -2.6761453      30.926128     -44.719775      3695496.4    
   3040000   299.38544      0.89240897     0.67960998     1.5720189      188.88414      107.46708      182.14491     -73.34623      -258.35077     -172.66663      19.543568      75.482213     -116.40929      3697327.9    
   3041000   300.5319       0.89582634     0.67636785     1.5721942      188.93524      107.45629      182.14872     -316.81722     -33.192451     -39.576872      227.56379      149.37689     -18.11542       3698034.2    
   3042000   300.19958      0.89483577     0.67869666     1.5735324      188.92835      107.45676      182.12553     -118.70842     -210.80115     -120.066       -18.965989      4.7600891      55.839587      3697445      
   3043000   299.73938      0.893464       0.67596726     1.5694313      188.78044      107.47752      181.9864      -130.2932       200.3363      -298.3892      -173.93706      12.603442     -25.884219      3692441      
   3044000   300.71065      0.89635916     0.67703369     1.5733928      188.83732      107.5015       182.16567      7.1158849      87.700858     -71.455989      166.43817      24.417859      65.059633      3698016.8    
   3045000   300.43227      0.89552936     0.67712437     1.5726537      188.87393      107.51259      182.1936       72.262615     -320.75615     -162.76702      28.206218     -123.41039      90.731142      3699682.4    
   3046000   300.12576      0.89461573     0.67821885     1.5728346      188.78663      107.47311      182.22921      94.263596     -0.00059496444 -258.25789     -58.099516     -71.959528      7.1901526      3697337.3    
   3047000   300.39703      0.89542432     0.67851339     1.5739377      188.80076      107.51503      182.15261     -34.099975     -237.78345     -0.80054067    -152.26977     -74.610288     -17.103693      3697501.1    
   3048000   299.92277      0.89401066     0.6774172      1.5714279      188.79939      107.4861       181.97867      255.96845     -74.414455     -214.94974      26.333429      44.89658       71.977269      3692949.6    
   3049000   299.93475      0.89404636     0.67711298     1.5711593      188.80141      107.48883      182.19926      266.40793     -132.38828     -30.00416       32.255398     -40.198801      131.02149      3697559.7    
   3050000   299.92942      0.89403047     0.67467589     1.5687064      188.80313      107.47961      182.25949     -144.06225     -60.013086     -197.75721     -62.207831      35.037285     -99.860749      3698498.2    
Loop time of 780.471 on 256 procs for 50000 steps with 414720 atoms

Performance: 5.535 ns/day, 4.336 hours/ns, 64.064 timesteps/s, 26.569 Matom-step/s
99.4% CPU use with 256 MPI tasks x no OpenMP threads

MPI task timing breakdown:
Section |  min time  |  avg time  |  max time  |%varavg| %total
---------------------------------------------------------------
Pair    | 337.02     | 343.44     | 350.37     |  12.5 | 44.00
Bond    | 15.134     | 15.458     | 16.101     |   3.7 |  1.98
Kspace  | 114.93     | 126.24     | 134.4      |  37.2 | 16.18
Neigh   | 171.88     | 176.76     | 180.34     |  19.2 | 22.65
Comm    | 71.917     | 84.07      | 101.92     |  92.0 | 10.77
Output  | 0.088662   | 0.1047     | 0.12021    |   2.2 |  0.01
Modify  | 23.132     | 30.086     | 34.674     |  57.6 |  3.85
Other   |            | 4.307      |            |       |  0.55

Nlocal:           1620 ave        1648 max        1593 min
Histogram: 2 6 19 36 73 55 44 14 4 3
Nghost:        8416.16 ave        8518 max        8320 min
Histogram: 8 16 27 31 48 55 34 22 10 5
Neighs:         382626 ave      393519 max      371743 min
Histogram: 1 2 16 47 56 77 35 17 4 1

Total # of neighbors = 97952175
Ave neighs/atom = 236.18869
Ave special neighs/atom = 9.4
Neighbor list builds = 6924
Dangerous builds = 0
unfix           5
######################################
# SIMULATION DONE
Total wall time: 13:31:21
